LAMMPS protain data file

        1860  atoms
        2460  bonds
           0  angles
           0  dihedrals
           0  impropers

           5  atom types
           5  bond types
           0  angle types
           0  dihedral types
           0  improper types

-200.0	200.0	xlo xhi
-200.0	200.0	ylo yhi
-200.0	200.0	zlo zhi

Masses

           1	27.0
           2	14.0
           3	28.0
           4	60.0
           5	60.0

Atoms

           1	1	1	1	0.0	121.16899872	168.20799255	117.55000305
           2	1	1	3	0.0	122.68199921	167.43499756	119.2480011
           3	1	1	5	0.0	120.87160452	168.65368939	118.99378663
           4	1	2	1	0.0	124.10199738	165.68400574	117.30799866
           5	1	2	3	0.0	123.03600311	164.54600525	119.10900116
           6	1	2	4	0.0	125.32900238	166.35499573	117.93399811
           7	1	3	1	0.0	124.00299835	162.13699341	118.50499725
           8	1	3	3	0.0	124.35900116	160.80299377	116.55400085
           9	1	3	5	0.0	125.39696603	162.23423909	119.15229734
          10	1	4	1	0.0	125.33200073	158.67300415	117.9940033
          11	1	4	3	0.0	125.51599884	156.90899658	119.5510025
          12	1	4	4	0.0	126.83999634	158.6289978	117.99199677
          13	1	5	1	0.0	122.99299622	155.88600159	119.09899902
          14	1	5	3	0.0	122.72599792	153.90800476	117.83200073
          15	1	5	4	0.0	121.51300049	156.13400269	118.86499786
          16	1	6	1	0.0	125.29599762	153.01600647	118.34999847
          17	1	6	3	0.0	124.66500092	151.86500549	120.30799866
          18	1	6	4	0.0	126.76899719	152.91799927	118.70200348
          19	1	7	1	0.0	123.29100037	149.99200439	119.11399841
          20	1	7	3	0.0	123.03800201	148.602005	117.16799927
          21	1	7	5	0.0	124.62529814	149.48045069	119.68807355
          22	1	8	1	0.0	122.6210022	146.32200623	118.76000214
          23	1	8	3	0.0	124.63500214	145.8690033	119.90100098
          24	1	8	5	0.0	121.66592212	146.12598178	119.9520577
          25	1	9	1	0.0	124.27799988	143.25500488	120.07299805
          26	1	9	3	0.0	125.08799744	142.77799988	117.88800049
          27	1	9	5	0.0	125.10887728	144.48303441	120.48915452
          28	1	10	1	0.0	127.56199646	142.20500183	118.66600037
          29	1	10	3	0.0	128.65699768	141.14900208	120.48200226
          30	1	10	4	0.0	128.20899963	143.44799805	118.06600189
          31	1	11	1	0.0	130.11300659	139.50700378	118.88999939
          32	1	11	3	0.0	130.48199463	138.55299377	116.70800018
          33	1	11	5	0.0	131.31286797	140.33450329	118.39283016
          34	1	12	1	0.0	131.2749939	136.19400024	117.59600067
          35	1	12	3	0.0	129.69900513	134.852005	118.75800323
          36	1	12	4	0.0	132.61000061	135.58000183	117.9940033
          37	1	13	1	0.0	128.58399963	133.67100525	116.6289978
          38	1	13	3	0.0	128.17399597	131.8789978	118.17500305
          39	1	13	5	0.0	128.05827723	134.3456777	117.90963555
          40	1	14	1	0.0	130.79400635	130.95199585	118.01100159
          41	1	14	3	0.0	132.45300293	131.30799866	116.3690033
          42	1	14	5	0.0	131.57785885	131.91070116	118.92645742
          43	1	15	1	0.0	133.94900513	129.227005	117.03199768
          44	1	15	3	0.0	135.03599548	129.96400452	119.01699829
          45	1	15	5	0.0	134.10702489	127.97576252	117.91575217
          46	1	16	1	0.0	137.25	130.82299805	117.88400269
          47	1	16	3	0.0	137.68299866	132.44500732	116.16100311
          48	1	16	4	0.0	138.38900757	129.79800415	118.01799774
          49	1	17	1	0.0	139.16999817	134.06500244	117.88600159
          50	1	17	3	0.0	140.68699646	133.98800659	119.7539978
          51	1	17	4	0.0	138.31300354	135.24200439	118.34300232
          52	1	18	1	0.0	142.96400452	134.06900024	118.1760025
          53	1	18	3	0.0	143.91299438	135.52600098	116.52400208
          54	1	18	4	0.0	143.57299805	132.77400208	117.70600128
          55	1	19	1	0.0	144.88000488	137.34300232	118.43099976
          56	1	19	3	0.0	146.53199768	137.38999939	120.16600037
          57	1	19	4	0.0	144.07400513	138.44500732	119.08699799
          58	1	20	1	0.0	148.64100647	137.63800049	118.4960022
          59	1	20	3	0.0	149.26300049	139.4019928	117.02500153
          60	1	20	4	0.0	149.35899353	136.54699707	117.7480011
          61	1	21	1	0.0	150.772995	140.73899841	118.85800171
          62	1	21	3	0.0	152.64300537	140.4960022	120.31099701
          63	1	21	4	0.0	150.26300049	141.83099365	119.74900055
          64	1	22	1	0.0	154.50700378	140.37399292	118.3809967
          65	1	22	3	0.0	156.23199463	140.94400024	116.85099792
          66	1	22	4	0.0	154.8999939	138.99099731	117.88600159
          67	1	23	1	0.0	156.03900146	143.72200012	117.19999695
          68	1	23	3	0.0	157.55700684	143.51899719	118.99900055
          69	1	23	4	0.0	155.27999878	144.98100281	117.5739975
          70	1	24	1	0.0	159.75700378	144.15499878	117.61299896
          71	1	24	3	0.0	160.22999573	145.68800354	119.38400269
          72	1	24	4	0.0	160.78900146	143.66900635	116.64199829
          73	1	25	1	0.0	160.94200134	147.76199341	117.84300232
          74	1	25	3	0.0	160.81300354	149.71299744	116.52500153
          75	1	25	4	0.0	162.40899658	147.98199463	117.50299835
          76	1	26	1	0.0	158.17199707	150.2230072	117.01200104
          77	1	26	3	0.0	158.77099609	151.41400146	118.95899963
          78	1	26	4	0.0	156.74299622	149.83399963	117.36399841
          79	1	27	1	0.0	158.97200012	153.84599304	117.71600342
          80	1	27	3	0.0	157.84300232	155.16000366	116.0719986
          81	1	27	4	0.0	160.40800476	154.25700378	117.41999817
          82	1	28	1	0.0	156.7460022	156.90600586	117.89800262
          83	1	28	3	0.0	157.62600708	158.25	119.66100311
          84	1	28	4	0.0	155.30700684	156.76199341	118.43699646
          85	1	29	1	0.0	158.05400085	160.42500305	118.08100128
          86	1	29	3	0.0	156.30299377	161.46299744	116.84300232
          87	1	29	4	0.0	159.38200378	160.66900635	117.44400024
          88	1	30	1	0.0	156.3500061	163.77900696	118.37799835
          89	1	30	3	0.0	157.94799805	164.81900024	119.79399872
          90	1	30	4	0.0	154.98899841	163.69500732	119.04100037
          91	1	31	1	0.0	157.56100464	167.32600403	118.70899963
          92	1	31	3	0.0	156.50300598	168.67500305	117.06099701
          93	1	31	4	0.0	158.9940033	167.35099792	118.18299866
          94	1	32	1	0.0	155.79299927	170.69599915	118.88700104
          95	1	32	3	0.0	154.16299438	170.73100281	117.125
          96	1	32	4	0.0	156.61199951	171.53100586	117.89700317
          97	1	33	1	0.0	152.00900269	170.29600525	118.8010025
          98	1	33	3	0.0	151.227005	171.14300537	120.90100098
          99	1	33	4	0.0	151.46499634	168.87600708	118.77500153
         100	1	34	1	0.0	149.32299805	172.78300476	119.81199646
         101	1	34	3	0.0	147.44599915	173.9730072	118.96800232
         102	1	34	4	0.0	149.90800476	174.18200684	119.88300323
         103	1	35	1	0.0	145.91999817	171.73300171	118.55599976
         104	1	35	3	0.0	145.1230011	171.06100464	120.71800232
         105	1	35	5	0.0	145.6103257	173.05157993	119.28883974
         106	1	36	1	0.0	143.12199402	169.50700378	119.75099945
         107	1	36	3	0.0	142.57800293	168.21099854	117.8239975
         108	1	36	4	0.0	141.89700317	170.32299805	120.08999634
         109	1	37	1	0.0	142.02400208	165.95100403	119.1989975
         110	1	37	3	0.0	141.32099915	165.02000427	121.29699707
         111	1	37	4	0.0	143.22799683	165.19599915	118.70200348
         112	1	38	1	0.0	139.69400024	163.17700195	120.20200348
         113	1	38	3	0.0	139.28799438	161.8730011	118.23400116
         114	1	38	4	0.0	138.36700439	163.73599243	120.64800262
         115	1	39	1	0.0	139.01400757	159.4960022	119.72499847
         116	1	39	3	0.0	139.08500671	158.38200378	121.78500366
         117	1	39	4	0.0	140.25900269	158.80999756	119.20899963
         118	1	40	1	0.0	136.70500183	157.19900513	121.6190033
         119	1	40	3	0.0	137.44599915	155.59199524	123.19599915
         120	1	40	5	0.0	137.46167961	158.00084846	122.6942177
         121	1	41	1	0.0	138.83099365	154.10099792	121.38300323
         122	1	41	3	0.0	140.13699341	154.03700256	119.37799835
         123	1	41	4	0.0	137.98100281	152.88299561	121.09400177
         124	1	42	1	0.0	142.51800537	153.76499939	120.7480011
         125	1	42	3	0.0	143.40899658	152.22900391	122.34100342
         126	1	42	4	0.0	143.3500061	154.97799683	121.16300201
         127	1	43	1	0.0	144.33799744	150.47900391	120.5019989
         128	1	43	3	0.0	146.272995	150.55799866	119.09200287
         129	1	43	4	0.0	143.73699951	149.31599426	119.70500183
         130	1	44	1	0.0	148.02000427	150.52799988	121.27799988
         131	1	44	3	0.0	148.83900452	148.71699524	119.98799896
         132	1	44	5	0.0	147.99665336	150.72000231	119.75019433
         133	1	45	1	0.0	148.77099609	146.93400574	122.18599701
         134	1	45	3	0.0	147.40299988	146.18899536	120.38700104
         135	1	45	5	0.0	149.38966427	147.08031757	120.78334148
         136	1	46	1	0.0	145.88900757	144.56799316	121.7440033
         137	1	46	3	0.0	144.69799805	144.40800476	123.79499817
         138	1	46	4	0.0	146.27999878	143.16799927	121.26499939
         139	1	47	1	0.0	142.36999512	143.97599792	122.64099884
         140	1	47	3	0.0	141.16799927	143.76100159	120.57499695
         141	1	47	5	0.0	142.69217815	142.47076049	122.5956296
         142	1	48	1	0.0	138.80999756	143.28599548	121.86299896
         143	1	48	3	0.0	137.91299438	143.12399292	124.03900146
         144	1	48	5	0.0	138.62282985	144.80031848	121.65468645
         145	1	49	1	0.0	135.39599609	143.6269989	123.20899963
         146	1	49	3	0.0	135.79800415	144.84100342	125.24299622
         147	1	49	4	0.0	135.04400635	142.40600586	124.04199982
         148	1	50	1	0.0	136.55000305	147.16999817	123.79000092
         149	1	50	3	0.0	135.50900269	148.4019928	122.0530014
         150	1	50	4	0.0	137.97999573	147.55000305	123.40299988
         151	1	51	1	0.0	134.06500244	149.94900513	123.80999756
         152	1	51	3	0.0	134.67500305	151.352005	125.63700104
         153	1	51	4	0.0	132.64599609	149.49699402	124.19400024
         154	1	52	1	0.0	135.05599976	153.55599976	124.07299805
         155	1	52	3	0.0	133.1269989	154.29899597	122.90100098
         156	1	52	5	0.0	134.13445575	153.37649568	125.29370887
         157	1	53	1	0.0	133.59100342	156.93400574	123.34300232
         158	1	53	3	0.0	135.27600098	158.26600647	124.32700348
         159	1	53	4	0.0	132.29699707	157.04699707	124.07499695
         160	1	54	1	0.0	134.46699524	160.53799438	123.29599762
         161	1	54	3	0.0	132.67100525	161.42399597	122.06300354
         162	1	54	4	0.0	135.7749939	160.79400635	122.56999969
         163	1	55	1	0.0	132.65600586	163.77099609	123.5530014
         164	1	55	3	0.0	133.73500061	165.01300049	125.26200104
         165	1	55	4	0.0	131.38600159	163.48699951	124.34500122
         166	1	56	1	0.0	134.65499878	166.94000244	123.60500336
         167	1	56	3	0.0	134.16000366	168.38699341	121.7559967
         168	1	56	4	0.0	136.06300354	166.48300171	123.33200073
         169	1	57	1	0.0	134.1210022	170.66499329	123.25499725
         170	1	57	3	0.0	134.46299744	172.68400574	124.47699738
         171	1	57	4	0.0	132.64199829	170.95799255	123.43199921
         172	1	58	1	0.0	137.30000305	172.45799255	124.49099731
         173	1	58	3	0.0	137.25900269	173.89900208	122.62799835
         174	1	58	4	0.0	138.59399414	171.70100403	124.2440033
         175	1	59	1	0.0	138.09599304	176.08599854	124.09100342
         176	1	59	3	0.0	139.8789978	176.43800354	125.61100006
         177	1	59	4	0.0	137.21699524	177.17199707	124.69799805
         178	1	60	1	0.0	141.72099304	176.98699951	123.71499634
         179	1	60	3	0.0	141.89599609	178.70599365	122.0719986
         180	1	60	4	0.0	142.67799377	175.98500061	123.04000092
         181	1	61	1	0.0	143.04400635	180.47900391	123.75800323
         182	1	61	3	0.0	145.08599854	179.56700134	124.47100067
         183	1	61	4	0.0	142.65600586	181.56599426	124.72399902
         184	1	62	1	0.0	146.61300659	180.93800354	122.92099762
         185	1	62	3	0.0	146.48500061	183.16900635	122.11299896
         186	1	62	4	0.0	146.94400024	179.76499939	121.99700165
         187	2	63	1	0.0	121.76699829	168.32800293	122.39499664
         188	2	63	3	0.0	123.26999664	167.53100586	124.09300232
         189	2	63	5	0.0	121.47721545	168.77864316	123.83879347
         190	2	64	1	0.0	124.66300201	165.75900269	122.15299988
         191	2	64	3	0.0	123.57900238	164.63800049	123.95400238
         192	2	64	4	0.0	125.90000153	166.41099548	122.77899933
         193	2	65	1	0.0	124.50900269	162.21400452	123.34999847
         194	2	65	3	0.0	124.84400177	160.875	121.39900208
         195	2	65	5	0.0	125.90428017	162.2901076	123.99730756
         196	2	66	1	0.0	125.78399658	158.72999573	122.83899689
         197	2	66	3	0.0	125.94100189	156.96400452	124.39499664
         198	2	66	4	0.0	127.29199982	158.66299438	122.83699799
         199	2	67	1	0.0	123.40200043	155.97900391	123.94400024
         200	2	67	3	0.0	123.10500336	154.0059967	122.6760025
         201	2	67	4	0.0	121.9260025	156.25	123.71099854
         202	2	68	1	0.0	125.66100311	153.07400513	123.19499969
         203	2	68	3	0.0	125.01200104	151.93299866	125.15299988
         204	2	68	4	0.0	127.1309967	152.95300293	123.54699707
         205	2	69	1	0.0	123.60900116	150.08099365	123.95999908
         206	2	69	3	0.0	123.33399963	148.69599915	122.01300049
         207	2	69	5	0.0	124.93531064	149.54828185	124.5333413
         208	2	70	1	0.0	122.88200378	146.42199707	123.60399628
         209	2	70	3	0.0	124.88899994	145.93800354	124.7460022
         210	2	70	5	0.0	121.92366273	146.24119047	124.79583997
         211	2	71	1	0.0	124.49199677	143.33000183	124.91699982
         212	2	71	3	0.0	125.29399872	142.83999634	122.73200226
         213	2	71	5	0.0	125.34214211	144.54473477	125.33326509
         214	2	72	1	0.0	127.75900269	142.22900391	123.51000214
         215	2	72	3	0.0	128.83799744	141.15699768	125.3259964
         216	2	72	4	0.0	128.42399597	143.46200562	122.91000366
         217	2	73	1	0.0	130.26800537	139.49299622	123.73400116
         218	2	73	3	0.0	130.62199402	138.53300476	121.55200195
         219	2	73	5	0.0	131.48026503	140.30224988	123.23687438
         220	2	74	1	0.0	131.3789978	136.16200256	122.44000244
         221	2	74	3	0.0	129.78300476	134.84399414	123.60299683
         222	2	74	4	0.0	132.70500183	135.5269928	122.83799744
         223	2	75	1	0.0	128.64900208	133.68099976	121.47399902
         224	2	75	3	0.0	128.21200562	131.89500427	123.01899719
         225	2	75	5	0.0	128.13514474	134.36358275	122.75526055
         226	2	76	1	0.0	130.81700134	130.92799377	122.85600281
         227	2	76	3	0.0	132.48100281	131.25799561	121.21299744
         228	2	76	5	0.0	131.61549912	131.87507534	123.7709005
         229	2	77	1	0.0	133.94500732	129.15499878	121.87599945
         230	2	77	3	0.0	135.04299927	129.875	123.86100006
         231	2	77	5	0.0	134.0834186	127.90076275	122.75879858
         232	2	78	1	0.0	137.27099609	130.69799805	122.72799683
         233	2	78	3	0.0	137.72799683	132.31399536	121.00499725
         234	2	78	4	0.0	138.39300537	129.65699768	122.86299896
         235	2	79	1	0.0	139.24099731	133.91200256	122.73000336
         236	2	79	3	0.0	140.7559967	133.81100464	124.59799957
         237	2	79	4	0.0	138.4019928	135.102005	123.18800354
         238	2	80	1	0.0	143.03300476	133.85699463	123.02100372
         239	2	80	3	0.0	144.00500488	135.29899597	121.3690033
         240	2	80	4	0.0	143.6230011	132.55200195	122.5490036
         241	2	81	1	0.0	145.00100708	137.10099792	123.27500153
         242	2	81	3	0.0	146.65299988	137.12199402	125.01100159
         243	2	81	4	0.0	144.21200562	138.21499634	123.93199921
         244	2	82	1	0.0	148.76600647	137.33700562	123.33899689
         245	2	82	3	0.0	149.41400146	139.09199524	121.87000275
         246	2	82	4	0.0	149.46600342	136.23599243	122.59100342
         247	2	83	1	0.0	150.94500732	140.40499878	123.70300293
         248	2	83	3	0.0	152.81100464	140.13299561	125.15499878
         249	2	83	4	0.0	150.45199585	141.50500488	124.59400177
         250	2	84	1	0.0	154.67300415	139.98300171	123.22499847
         251	2	84	3	0.0	156.40600586	140.52600098	121.69499969
         252	2	84	4	0.0	155.04400635	138.59399414	122.73100281
         253	2	85	1	0.0	156.25700378	143.30700684	122.04399872
         254	2	85	3	0.0	157.77099609	143.08000183	123.84300232
         255	2	85	4	0.0	155.51699829	144.57699585	122.41799927
         256	2	86	1	0.0	159.98100281	143.68299866	122.45800018
         257	2	86	3	0.0	160.477005	145.20799255	124.22899628
         258	2	86	4	0.0	161.0059967	143.17999268	121.48600006
         259	2	87	1	0.0	161.22200012	147.27099609	122.68800354
         260	2	87	3	0.0	161.12199402	149.22399902	121.37000275
         261	2	87	4	0.0	162.69099426	147.46800232	122.34700012
         262	2	88	1	0.0	158.49000549	149.77400208	121.85600281
         263	2	88	3	0.0	159.10699463	150.95599365	123.8030014
         264	2	88	4	0.0	157.05499268	149.40699768	122.20800018
         265	2	89	1	0.0	159.34500122	153.38400269	122.55899811
         266	2	89	3	0.0	158.23699951	154.71499634	120.91600037
         267	2	89	4	0.0	160.78799438	153.772995	122.26399994
         268	2	90	1	0.0	157.16700745	156.47799683	122.74199677
         269	2	90	3	0.0	158.06700134	157.80799866	124.5059967
         270	2	90	4	0.0	155.7250061	156.35600281	123.28199768
         271	2	91	1	0.0	158.52900696	159.97599792	122.92500305
         272	2	91	3	0.0	156.79400635	161.04100037	121.68800354
         273	2	91	4	0.0	159.86099243	160.19999695	122.28900146
         274	2	92	1	0.0	156.8769989	163.35699463	123.22200012
         275	2	92	3	0.0	158.49099731	164.3710022	124.63800049
         276	2	92	4	0.0	155.51499939	163.29400635	123.88700104
         277	2	93	1	0.0	158.14199829	166.88400269	123.55400085
         278	2	93	3	0.0	157.10600281	168.25	121.90599823
         279	2	93	4	0.0	159.57600403	166.88699341	123.02700043
         280	2	94	1	0.0	156.42799377	170.28100586	123.73100281
         281	2	94	3	0.0	154.79800415	170.34100342	121.97000122
         282	2	94	4	0.0	157.25900269	171.10299683	122.74099731
         283	2	95	1	0.0	152.63699341	169.93899536	123.64600372
         284	2	95	3	0.0	151.8690033	170.79899597	125.7460022
         285	2	95	4	0.0	152.07099915	168.52900696	123.6190033
         286	2	96	1	0.0	149.99000549	172.46800232	124.65699768
         287	2	96	3	0.0	148.1309967	173.68699646	123.81300354
         288	2	96	4	0.0	150.5980072	173.85800171	124.72699738
         289	2	97	1	0.0	146.57099915	171.47099304	123.40000153
         290	2	97	3	0.0	145.76400757	170.81100464	125.56300354
         291	2	97	5	0.0	146.28187909	172.79360379	124.13397047
         292	2	98	1	0.0	143.73899841	169.28700256	124.59600067
         293	2	98	3	0.0	143.17599487	168.0	122.66899872
         294	2	98	4	0.0	142.5269928	170.12399292	124.93499756
         295	2	99	1	0.0	142.58599854	165.74899292	124.04399872
         296	2	99	3	0.0	141.8690033	164.83000183	126.14199829
         297	2	99	4	0.0	143.77900696	164.97599792	123.54699707
         298	2	100	1	0.0	140.21400452	163.01199341	125.04599762
         299	2	100	3	0.0	139.78799438	161.71499634	123.07800293
         300	2	100	4	0.0	138.89500427	163.59199524	125.49299622
         301	2	101	1	0.0	139.477005	159.34100342	124.56999969
         302	2	101	3	0.0	139.53100586	158.227005	126.62999725
         303	2	101	4	0.0	140.71099854	158.63699341	124.05400085
         304	2	102	1	0.0	137.13299561	157.08099365	126.46399689
         305	2	102	3	0.0	137.84899902	155.46200562	128.03999329
         306	2	102	5	0.0	137.90412035	157.87108617	127.53764508
         307	2	103	1	0.0	139.21099854	153.95100403	126.22799683
         308	2	103	3	0.0	140.51499939	153.86599731	124.22299957
         309	2	103	4	0.0	138.34199524	152.74499512	125.93900299
         310	2	104	1	0.0	142.89199829	153.55799866	125.59200287
         311	2	104	3	0.0	143.75900269	152.00799561	127.18599701
         312	2	104	4	0.0	143.74299622	154.75799561	126.00700378
         313	2	105	1	0.0	144.66200256	150.24299622	125.34600067
         314	2	105	3	0.0	146.59700012	150.29299927	123.93599701
         315	2	105	4	0.0	144.04299927	149.08999634	124.55000305
         316	2	106	1	0.0	148.34300232	150.23599243	126.12400055
         317	2	106	3	0.0	149.13400269	148.41200256	124.83200073
         318	2	106	5	0.0	148.32362487	150.42955641	124.59633648
         319	2	107	1	0.0	149.03900146	146.63000488	127.02999878
         320	2	107	3	0.0	147.65899658	145.90699768	125.23100281
         321	2	107	5	0.0	149.65984366	146.76704713	125.62736754
         322	2	108	1	0.0	146.11999512	144.30900574	126.58899689
         323	2	108	3	0.0	144.92799377	144.16700745	128.63999939
         324	2	108	4	0.0	146.49000549	142.90400696	126.11000061
         325	2	109	1	0.0	142.59300232	143.77099609	127.48600006
         326	2	109	3	0.0	141.38800049	143.57499695	125.41899872
         327	2	109	5	0.0	142.89193558	142.26098001	127.44027993
         328	2	110	1	0.0	139.02200317	143.13699341	126.70700073
         329	2	110	3	0.0	138.12399292	142.98800659	128.88400269
         330	2	110	5	0.0	138.85787993	144.65395235	126.49843629
         331	2	111	1	0.0	135.61500549	143.52999878	128.05299377
         332	2	111	3	0.0	136.03500366	144.73800659	130.08700562
         333	2	111	4	0.0	135.24299622	142.31500244	128.88600159
         334	2	112	1	0.0	136.82299805	147.05499268	128.63400269
         335	2	112	3	0.0	135.80099487	148.30299377	126.89800262
         336	2	112	4	0.0	138.25799561	147.41299438	128.24699402
         337	2	113	1	0.0	134.38200378	149.87199402	128.65499878
         338	2	113	3	0.0	135.01199341	151.26600647	130.48199463
         339	2	113	4	0.0	132.95500183	149.44200134	129.03799438
         340	2	114	1	0.0	135.42799377	153.46400452	128.91799927
         341	2	114	3	0.0	133.50999451	154.23699951	127.74500275
         342	2	114	5	0.0	134.5035569	153.29886907	130.13855109
         343	2	115	1	0.0	134.01499939	156.86300659	128.18800354
         344	2	115	3	0.0	135.72000122	158.16900635	129.17199707
         345	2	115	4	0.0	132.72200012	156.99699402	128.91900635
         346	2	116	1	0.0	134.94700623	160.45300293	128.14199829
         347	2	116	3	0.0	133.16400146	161.36799622	126.90799713
         348	2	116	4	0.0	136.25900269	160.69000244	127.41400146
         349	2	117	1	0.0	133.18600464	163.71400452	128.397995
         350	2	117	3	0.0	134.28399658	164.93899536	130.10699463
         351	2	117	4	0.0	131.91099548	163.44999695	129.18899536
         352	2	118	1	0.0	135.23399353	166.852005	128.44900513
         353	2	118	3	0.0	134.76100159	168.30700684	126.60099792
         354	2	118	4	0.0	136.63499451	166.37399292	128.17700195
         355	2	119	1	0.0	134.75700378	170.58500671	128.09899902
         356	2	119	3	0.0	135.1309967	172.5980072	129.32200623
         357	2	119	4	0.0	133.28300476	170.8999939	128.27600098
         358	2	120	1	0.0	137.96400452	172.32899475	129.33700562
         359	2	120	3	0.0	137.94599915	173.77000427	127.47200012
         360	2	120	4	0.0	139.2460022	171.55099487	129.08799744
         361	2	121	1	0.0	138.81599426	175.94299316	128.93499756
         362	2	121	3	0.0	140.60400391	176.26899719	130.45599365
         363	2	121	4	0.0	137.95399475	177.04299927	129.54200745
         364	2	122	1	0.0	142.45399475	176.78799438	128.55900574
         365	2	122	3	0.0	142.65499878	178.5039978	126.91699982
         366	2	122	4	0.0	143.39500427	175.77200317	127.88600159
         367	2	123	1	0.0	143.83000183	180.25999451	128.602005
         368	2	123	3	0.0	145.85800171	179.31599426	129.31599426
         369	2	123	4	0.0	143.45899963	181.35299683	129.56900024
         370	2	124	1	0.0	147.40699768	180.66299438	127.76599884
         371	2	124	3	0.0	147.31199646	182.89599609	126.95700073
         372	2	124	4	0.0	147.71899414	179.48500061	126.84200287
         373	3	125	1	0.0	122.97200012	168.54100037	132.08399963
         374	3	125	3	0.0	124.4489975	167.69799805	133.78300476
         375	3	125	5	0.0	122.69657638	169.00057104	133.52779206
         376	3	126	1	0.0	125.78700256	165.88299561	131.84199524
         377	3	126	3	0.0	124.66899872	164.79600525	133.64300537
         378	3	126	4	0.0	127.04399872	166.49699402	132.46800232
         379	3	127	1	0.0	125.52300262	162.34399414	133.03900146
         380	3	127	3	0.0	125.81700134	160.9960022	131.08799744
         381	3	127	5	0.0	126.91889801	162.37643919	133.68863475
         382	3	128	1	0.0	126.69100189	158.82299805	132.52900696
         383	3	128	3	0.0	126.79299927	157.05299377	134.08399963
         384	3	128	4	0.0	128.19500732	158.70899963	132.52600098
         385	3	129	1	0.0	124.22499847	156.14700317	133.63400269
         386	3	129	3	0.0	123.86699677	154.18499756	132.36500549
         387	3	129	4	0.0	122.75800323	156.46400452	133.3999939
         388	3	130	1	0.0	126.39199829	153.17399597	132.88400269
         389	3	130	3	0.0	125.70899963	152.05299377	134.84199524
         390	3	130	4	0.0	127.85800171	153.00900269	133.23699951
         391	3	131	1	0.0	124.25	150.2460022	133.647995
         392	3	131	3	0.0	123.93199921	148.8690033	131.70100403
         393	3	131	5	0.0	125.55925531	149.67249651	134.22118062
         394	3	132	1	0.0	123.41000366	146.61099243	133.29299927
         395	3	132	3	0.0	125.40100098	146.06500244	134.43499756
         396	3	132	5	0.0	122.44604452	146.45990978	134.48445082
         397	3	133	1	0.0	124.9240036	143.47000122	134.60600281
         398	3	133	3	0.0	125.70999908	142.95500183	132.42100525
         399	3	133	5	0.0	125.81064589	144.65814705	135.02286601
         400	3	134	1	0.0	128.15499878	142.26899719	133.19999695
         401	3	134	3	0.0	129.20100403	141.16400146	135.01499939
         402	3	134	4	0.0	128.85800171	143.48100281	132.6000061
         403	3	135	1	0.0	130.57800293	139.45599365	133.42399597
         404	3	135	3	0.0	130.9019928	138.48500061	131.24200439
         405	3	135	5	0.0	131.81536	140.22743208	132.92858681
         406	3	136	1	0.0	131.58599854	136.09300232	132.13000488
         407	3	136	3	0.0	129.94999695	134.82400513	133.29200745
         408	3	136	4	0.0	132.89199829	135.41799927	132.5269928
         409	3	137	1	0.0	128.78100586	133.69700623	131.16299438
         410	3	137	3	0.0	128.28900146	131.92599487	132.70899963
         411	3	137	5	0.0	128.28737616	134.39463284	132.44410595
         412	3	138	1	0.0	130.86099243	130.8789978	132.54499817
         413	3	138	3	0.0	132.53599548	131.15699768	130.9019928
         414	3	138	5	0.0	131.68825655	131.79994011	133.46102184
         415	3	139	1	0.0	133.93400574	129.00999451	131.56599426
         416	3	139	3	0.0	135.05400085	129.69500732	133.55000305
         417	3	139	5	0.0	134.03412597	127.75310895	132.45019709
         418	3	140	1	0.0	137.30599976	130.44999695	132.41700745
         419	3	140	3	0.0	137.81300354	132.05099487	130.69400024
         420	3	140	4	0.0	138.39599609	129.375	132.55099487
         421	3	141	1	0.0	139.37399292	133.60099792	132.41999817
         422	3	141	3	0.0	140.88600159	133.45399475	134.28799438
         423	3	141	4	0.0	138.57200623	134.81599426	132.8769989
         424	3	142	1	0.0	143.16299438	133.42799377	132.71000671
         425	3	142	3	0.0	144.17900085	134.83900452	131.05799866
         426	3	142	4	0.0	143.71299744	132.10600281	132.23899841
         427	3	143	1	0.0	145.22999573	136.61099243	132.96400452
         428	3	143	3	0.0	146.88200378	136.58099365	134.69999695
         429	3	143	4	0.0	144.47599792	137.7480011	133.6210022
         430	3	144	1	0.0	149.0	136.73100281	133.02900696
         431	3	144	3	0.0	149.70300293	138.46499634	131.55799866
         432	3	144	4	0.0	149.66700745	135.60800171	132.28100586
         433	3	145	1	0.0	151.27400208	139.72999573	133.39199829
         434	3	145	3	0.0	153.13000488	139.40100098	134.84500122
         435	3	145	4	0.0	150.81399536	140.84399414	134.28300476
         436	3	146	1	0.0	154.98699951	139.19299316	132.91400146
         437	3	146	3	0.0	156.73599243	139.68200684	131.38499451
         438	3	146	4	0.0	155.31500244	137.79299927	132.41999817
         439	3	147	1	0.0	156.67300415	142.46499634	131.73300171
         440	3	147	3	0.0	158.17799377	142.19299316	133.53199768
         441	3	147	4	0.0	155.9730072	143.75799561	132.10699463
         442	3	148	1	0.0	160.40600586	142.727005	132.14700317
         443	3	148	3	0.0	160.94900513	144.23599243	133.91799927
         444	3	148	4	0.0	161.41499329	142.19299316	131.17500305
         445	3	149	1	0.0	161.75700378	146.2749939	132.3769989
         446	3	149	3	0.0	161.71800232	148.22999573	131.05900574
         447	3	149	4	0.0	163.23199463	146.42700195	132.03599548
         448	3	150	1	0.0	159.10499573	148.86099243	131.54600525
         449	3	150	3	0.0	159.75700378	150.022995	133.49200439
         450	3	150	4	0.0	157.65800476	148.53900146	131.89700317
         451	3	151	1	0.0	160.07099915	152.44400024	132.24899292
         452	3	151	3	0.0	159.0039978	153.80900574	130.60499573
         453	3	151	4	0.0	161.5249939	152.78799438	131.95399475
         454	3	152	1	0.0	157.98899841	155.60299683	132.43200684
         455	3	152	3	0.0	158.92999268	156.90499878	134.19500732
         456	3	152	4	0.0	156.54400635	155.52600098	132.97099304
         457	3	153	1	0.0	159.45799255	159.05700684	132.61399841
         458	3	153	3	0.0	157.75799561	160.17500305	131.3769989
         459	3	153	4	0.0	160.79600525	159.24000549	131.97799683
         460	3	154	1	0.0	157.91099548	162.48699951	132.91099548
         461	3	154	3	0.0	159.55700684	163.45300293	134.32699585
         462	3	154	4	0.0	156.54800415	162.46600342	133.57499695
         463	3	155	1	0.0	159.28500366	165.97399902	133.24299622
         464	3	155	3	0.0	158.29100037	167.3710022	131.59500122
         465	3	155	4	0.0	160.71800232	165.93299866	132.71699524
         466	3	156	1	0.0	157.67599487	169.42199707	133.41999817
         467	3	156	3	0.0	156.04800415	169.53300476	131.65899658
         468	3	156	4	0.0	158.53199768	170.21800232	132.43099976
         469	3	157	1	0.0	153.87600708	169.19900513	133.33500671
         470	3	157	3	0.0	153.13499451	170.08000183	135.43499756