ITEM: TIMESTEP
0
ITEM: NUMBER OF ATOMS
1860
ITEM: BOX BOUNDS ss ss ss
9.5171989990000000e+01 1.6353100531000001e+02
7.5496994560000005e+01 1.8320901434999999e+02
1.1603199060000000e+02 1.4505700629000000e+02
ITEM: ATOMS id type xs ys zs
1 1 0.380301 0.86073 0.0523001
2 3 0.402434 0.853554 0.110801
3 5 0.375951 0.864868 0.102043
4 1 0.423207 0.837298 0.0439624
5 3 0.407613 0.826732 0.106012
6 4 0.441156 0.843527 0.0655299
7 1 0.421759 0.804367 0.0852026
8 3 0.426967 0.791982 0.0179848
9 5 0.442151 0.80527 0.107504
10 1 0.4412 0.772207 0.0675973
11 3 0.443892 0.75583 0.121241
12 4 0.46326 0.771799 0.0675282
13 1 0.406984 0.746333 0.105668
14 3 0.403078 0.727969 0.0620158
15 4 0.385333 0.748635 0.0976057
16 1 0.440674 0.719688 0.0798624
17 3 0.431443 0.709002 0.147321
18 4 0.462222 0.718778 0.0919901
19 1 0.411343 0.691613 0.106185
20 3 0.407642 0.678708 0.039139
21 5 0.430862 0.686864 0.125963
22 1 0.401542 0.65754 0.0939883
23 3 0.431004 0.653335 0.133299
24 5 0.38757 0.655721 0.135058
25 1 0.425782 0.629066 0.139225
26 3 0.437631 0.624638 0.0639452
27 5 0.437936 0.640467 0.153563
28 1 0.473822 0.619318 0.0907496
29 3 0.48984 0.609514 0.153316
30 4 0.483287 0.630858 0.0700779
31 1 0.51114 0.59427 0.0984671
32 3 0.516538 0.585413 0.0232906
33 5 0.528692 0.601952 0.0813381
34 1 0.528138 0.563512 0.0538849
35 3 0.505084 0.551053 0.0939194
36 4 0.547667 0.557812 0.0675973
37 1 0.488773 0.540088 0.0205687
38 3 0.482775 0.523451 0.0738333
39 5 0.481082 0.546352 0.0646906
40 1 0.521102 0.514845 0.0681829
41 3 0.545371 0.51815 0.0116111
42 5 0.532569 0.523746 0.0997232
43 1 0.567255 0.49883 0.0344533
44 3 0.583157 0.505673 0.102843
45 5 0.569567 0.487214 0.0649013
46 1 0.615544 0.513647 0.0638074
47 3 0.621879 0.528706 0.00444487
48 4 0.632207 0.504131 0.068424
49 1 0.643631 0.543746 0.0638763
50 3 0.665823 0.543031 0.128234
51 4 0.631095 0.554674 0.0796214
52 1 0.699133 0.543783 0.0738677
53 3 0.713015 0.55731 0.0169513
54 4 0.708041 0.531761 0.0576748
55 1 0.727161 0.574179 0.0826532
56 3 0.751327 0.574616 0.142429
57 4 0.71537 0.58441 0.105254
58 1 0.782179 0.576918 0.0848927
59 3 0.791278 0.593295 0.0342122
60 4 0.792683 0.566789 0.0591218
61 1 0.813368 0.605708 0.0973647
62 3 0.840723 0.603452 0.147425
63 4 0.805907 0.615846 0.128062
64 1 0.867991 0.602319 0.0809304
65 3 0.893225 0.607611 0.0282173
66 4 0.87374 0.589479 0.0638763
67 1 0.890402 0.633402 0.0402414
68 3 0.912608 0.631517 0.102223
69 4 0.879299 0.645091 0.0531268
70 1 0.944791 0.637422 0.0544705
71 3 0.951711 0.651654 0.115487
72 4 0.959888 0.63291 0.0210166
73 1 0.962126 0.670909 0.0623949
74 3 0.960239 0.689022 0.0169857
75 4 0.983587 0.672952 0.0506807
76 1 0.921605 0.693757 0.0337643
77 3 0.930367 0.704815 0.100844
78 4 0.900701 0.690146 0.0458917
79 1 0.933308 0.727393 0.0580194
80 3 0.916792 0.739593 0.0013784
81 4 0.954315 0.731209 0.0478211
82 1 0.900745 0.755802 0.0642898
83 3 0.913618 0.76828 0.125031
84 4 0.879694 0.754465 0.0828598
85 1 0.919879 0.788473 0.0705946
86 3 0.894264 0.79811 0.0279418
87 4 0.939306 0.790738 0.048648
88 1 0.894952 0.819612 0.0808271
89 3 0.918328 0.829267 0.129613
90 4 0.875042 0.818832 0.10367
91 1 0.912667 0.852542 0.0922311
92 3 0.89719 0.865066 0.0354524
93 4 0.93363 0.852774 0.0741088
94 1 0.886803 0.883829 0.0983638
95 3 0.862959 0.884154 0.0376575
96 4 0.898784 0.891581 0.0642554
97 1 0.831449 0.880115 0.0954009
98 3 0.820009 0.887979 0.167752
99 4 0.823491 0.866932 0.0945051
100 1 0.792156 0.903205 0.130233
101 3 0.764698 0.914253 0.101155
102 4 0.800714 0.916193 0.132679
103 1 0.742375 0.893457 0.0869598
104 3 0.730716 0.887218 0.161447
105 5 0.737845 0.905698 0.112208
106 1 0.701444 0.87279 0.128131
107 3 0.693486 0.860758 0.0617401
108 4 0.683524 0.880366 0.139811
109 1 0.685382 0.839776 0.109113
110 3 0.675098 0.831133 0.181395
111 4 0.702994 0.832767 0.0919901
112 1 0.651297 0.814022 0.14367
113 3 0.645358 0.801916 0.075866
114 4 0.631885 0.819212 0.159036
115 1 0.641349 0.779848 0.127235
116 3 0.642388 0.769506 0.198209
117 4 0.659562 0.773479 0.109458
118 1 0.607572 0.758523 0.19249
119 3 0.618412 0.743603 0.246822
120 5 0.618641 0.765967 0.229534
121 1 0.638672 0.729761 0.184359
122 3 0.657777 0.729167 0.11528
123 4 0.626238 0.718453 0.174402
124 1 0.692608 0.726641 0.162481
125 3 0.705642 0.712381 0.217365
126 4 0.704779 0.737903 0.176779
127 1 0.719232 0.696134 0.154005
128 3 0.747539 0.696867 0.105427
129 4 0.71044 0.685337 0.126546
130 1 0.773095 0.696589 0.180741
131 3 0.785076 0.679776 0.136297
132 5 0.772753 0.698372 0.128103
133 1 0.784081 0.663222 0.212024
134 3 0.764069 0.656306 0.150043
135 5 0.793131 0.664581 0.163698
136 1 0.741921 0.641256 0.196796
137 3 0.724499 0.639771 0.267459
138 4 0.747641 0.628259 0.180293
139 1 0.690443 0.63576 0.2277
140 3 0.672859 0.633764 0.15652
141 5 0.695156 0.621785 0.226137
142 1 0.638365 0.629354 0.200896
143 3 0.625243 0.62785 0.275866
144 5 0.635627 0.643413 0.193719
145 1 0.588423 0.63252 0.24727
146 3 0.594304 0.643791 0.317347
147 4 0.583274 0.621184 0.275969
148 1 0.605304 0.665413 0.267287
149 3 0.590076 0.676851 0.207442
150 4 0.626223 0.668941 0.253954
151 1 0.568952 0.691214 0.267976
152 3 0.577876 0.704239 0.330922
153 4 0.548194 0.687017 0.281206
154 1 0.583449 0.724701 0.277037
155 3 0.55523 0.731599 0.236658
156 5 0.569968 0.723034 0.319094
157 1 0.562018 0.756062 0.251887
158 3 0.586667 0.768429 0.285788
159 4 0.543089 0.757111 0.277106
160 1 0.574833 0.789522 0.250267
161 3 0.54856 0.797748 0.207787
162 4 0.593967 0.791899 0.225254
163 1 0.54834 0.819537 0.259122
164 3 0.564125 0.831068 0.318002
165 4 0.529762 0.816901 0.286408
166 1 0.577583 0.848958 0.260913
167 3 0.570342 0.862392 0.197209
168 4 0.59818 0.844715 0.251508
169 1 0.569771 0.883541 0.248855
170 3 0.574774 0.902286 0.290956
171 4 0.548136 0.886261 0.254953
172 1 0.616276 0.900187 0.291438
173 3 0.615676 0.913566 0.227253
174 4 0.635205 0.893159 0.282929
175 1 0.62792 0.93387 0.277657
176 3 0.654003 0.937138 0.330026
177 4 0.615062 0.943952 0.29857
178 1 0.680949 0.942235 0.264703
179 3 0.683509 0.958194 0.208097
180 4 0.694949 0.932932 0.241447
181 1 0.700303 0.974655 0.266185
182 3 0.730174 0.966187 0.29075
183 4 0.694627 0.984746 0.299466
184 1 0.752513 0.978916 0.237347
185 3 0.75064 0.999629 0.209509
186 4 0.757355 0.968026 0.205513
187 1 0.389049 0.861844 0.219225
188 3 0.411036 0.854445 0.277726
189 5 0.38481 0.866028 0.268968
190 1 0.431414 0.837994 0.210887
191 3 0.415556 0.827586 0.272937
192 4 0.449509 0.844047 0.232455
193 1 0.429161 0.805082 0.252128
194 3 0.434061 0.792651 0.18491
195 5 0.449572 0.805789 0.274429
196 1 0.447812 0.772736 0.234522
197 3 0.450109 0.756341 0.288131
198 4 0.469872 0.772114 0.234453
199 1 0.412967 0.747196 0.272593
200 3 0.408622 0.728879 0.228906
201 4 0.391375 0.749712 0.264565
202 1 0.446013 0.720226 0.246787
203 3 0.436519 0.709633 0.314246
204 4 0.467517 0.719103 0.258915
205 1 0.415995 0.692439 0.273144
206 3 0.411972 0.679581 0.206064
207 5 0.435397 0.687493 0.292897
208 1 0.40536 0.658469 0.260879
209 3 0.43472 0.653975 0.300224
210 5 0.391341 0.65679 0.301941
211 1 0.428912 0.629763 0.306116
212 3 0.440644 0.625213 0.230836
213 5 0.441349 0.64104 0.320457
214 1 0.476704 0.619541 0.25764
215 3 0.492488 0.609588 0.320207
216 4 0.486432 0.630988 0.236968
217 1 0.513407 0.59414 0.265358
218 3 0.518586 0.585227 0.190181
219 5 0.531141 0.601653 0.24823
220 1 0.52966 0.563215 0.220775
221 3 0.506312 0.550978 0.260844
222 4 0.549057 0.557319 0.234488
223 1 0.489723 0.540181 0.187494
224 3 0.483331 0.5236 0.240724
225 5 0.482206 0.546518 0.231637
226 1 0.521438 0.514622 0.235108
227 3 0.54578 0.517686 0.178501
228 5 0.533119 0.523415 0.266629
229 1 0.567197 0.498162 0.201344
230 3 0.583259 0.504846 0.269733
231 5 0.569222 0.486517 0.231759
232 1 0.615852 0.512487 0.230698
233 3 0.622537 0.52749 0.171335
234 4 0.632265 0.502822 0.235349
235 1 0.64467 0.542326 0.230767
236 3 0.666832 0.541388 0.295125
237 4 0.632397 0.553374 0.246546
238 1 0.700142 0.541815 0.240793
239 3 0.714361 0.555203 0.183876
240 4 0.708773 0.5297 0.224531
241 1 0.728931 0.571932 0.249544
242 3 0.753098 0.572127 0.309354
243 4 0.717389 0.582275 0.272179
244 1 0.784008 0.574124 0.251749
245 3 0.793487 0.590417 0.201137
246 4 0.794248 0.563902 0.225978
247 1 0.815884 0.602607 0.26429
248 3 0.843181 0.600082 0.314315
249 4 0.808672 0.612819 0.294987
250 1 0.870419 0.598689 0.247821
251 3 0.895771 0.60373 0.195108
252 4 0.875847 0.585793 0.230801
253 1 0.893591 0.629549 0.207132
254 3 0.915739 0.627442 0.269113
255 4 0.882766 0.64134 0.220017
256 1 0.948068 0.63304 0.221396
257 3 0.955324 0.647198 0.282412
258 4 0.963063 0.62837 0.187907
259 1 0.966222 0.666351 0.22932
260 3 0.964759 0.684483 0.183911
261 4 0.987712 0.66818 0.217571
262 1 0.926257 0.689589 0.200655
263 3 0.935283 0.700562 0.267735
264 4 0.905265 0.686182 0.212782
265 1 0.938764 0.723104 0.224875
266 3 0.922556 0.735461 0.168269
267 4 0.959873 0.726716 0.214712
268 1 0.906903 0.751829 0.23118
269 3 0.920069 0.764177 0.291955
270 4 0.885809 0.750696 0.249785
271 1 0.926828 0.784304 0.237485
272 3 0.901447 0.794192 0.194867
273 4 0.946313 0.786384 0.215573
274 1 0.902661 0.815694 0.247718
275 3 0.926271 0.825108 0.296503
276 4 0.882737 0.815109 0.270629
277 1 0.921166 0.848438 0.259156
278 3 0.906011 0.86112 0.202377
279 4 0.942144 0.848466 0.240999
280 1 0.896093 0.879976 0.265254
281 3 0.872248 0.880533 0.204583
282 4 0.908249 0.887608 0.231146
283 1 0.840635 0.876801 0.262326
284 3 0.829401 0.884785 0.334677
285 4 0.832356 0.863711 0.261396
286 1 0.801913 0.90028 0.297158
287 3 0.774719 0.911597 0.26808
288 4 0.810808 0.913185 0.299569
289 1 0.751898 0.891024 0.25385
290 3 0.740093 0.884897 0.328372
291 5 0.747669 0.903303 0.279138
292 1 0.71047 0.870748 0.295056
293 3 0.702234 0.858799 0.228665
294 4 0.69274 0.878518 0.306736
295 1 0.693603 0.837901 0.276038
296 3 0.683114 0.829369 0.34832
297 4 0.711055 0.830724 0.258915
298 1 0.658904 0.812491 0.31056
299 3 0.652672 0.800449 0.242757
300 4 0.639609 0.817875 0.32596
301 1 0.648122 0.778409 0.29416
302 3 0.648912 0.768067 0.365134
303 4 0.666174 0.771873 0.276383
304 1 0.613833 0.757427 0.359414
305 3 0.624307 0.742396 0.413712
306 5 0.625113 0.764762 0.396405
307 1 0.644231 0.728368 0.351283
308 3 0.663307 0.727579 0.282205
309 4 0.631519 0.717172 0.341327
310 1 0.698079 0.72472 0.329371
311 3 0.710762 0.710329 0.384289
312 4 0.710528 0.73586 0.34367
313 1 0.723972 0.693943 0.320896
314 3 0.752278 0.694407 0.272317
315 4 0.714917 0.683239 0.293471
316 1 0.77782 0.693878 0.3477
317 3 0.789391 0.676944 0.303187
318 5 0.777537 0.695675 0.295068
319 1 0.788002 0.6604 0.378915
320 3 0.767814 0.653688 0.316934
321 5 0.797084 0.661672 0.33059
322 1 0.7453 0.638852 0.363721
323 3 0.727863 0.637533 0.434384
324 4 0.750713 0.625808 0.347218
325 1 0.693705 0.633857 0.394625
326 3 0.676078 0.632037 0.323411
327 5 0.698078 0.619838 0.39305
328 1 0.641466 0.627971 0.367787
329 3 0.62833 0.626588 0.442791
330 5 0.639066 0.642054 0.360601
331 1 0.591627 0.631619 0.41416
332 3 0.597771 0.642835 0.484238
333 4 0.586185 0.620339 0.44286
334 1 0.609298 0.664346 0.434178
335 3 0.594347 0.675932 0.374367
336 4 0.63029 0.667669 0.420844
337 1 0.57359 0.690499 0.434901
338 3 0.582805 0.703441 0.497847
339 4 0.552714 0.686507 0.448096
340 1 0.588891 0.723847 0.443962
341 3 0.560833 0.731023 0.403549
342 5 0.575368 0.722314 0.486014
343 1 0.568221 0.755403 0.418812
344 3 0.593163 0.767528 0.452713
345 4 0.549306 0.756647 0.443997
346 1 0.581855 0.788733 0.417227
347 3 0.555772 0.797228 0.374711
348 4 0.601047 0.790933 0.392145
349 1 0.556094 0.819008 0.426046
350 3 0.572156 0.830381 0.484927
351 4 0.537442 0.816557 0.453299
352 1 0.586053 0.848141 0.427804
353 3 0.579134 0.86165 0.364134
354 4 0.606548 0.843703 0.418433
355 1 0.579075 0.882799 0.415745
356 3 0.584546 0.901487 0.457881
357 4 0.557513 0.885723 0.421843
358 1 0.625989 0.89899 0.458398
359 3 0.625726 0.912368 0.394143
360 4 0.644743 0.891767 0.449819
361 1 0.638453 0.932542 0.444548
362 3 0.664609 0.935569 0.496951
363 4 0.625843 0.942755 0.465461
364 1 0.691672 0.940387 0.431594
365 3 0.694612 0.956319 0.375022
366 4 0.705438 0.930955 0.408407
367 1 0.711801 0.972621 0.433075
368 3 0.741468 0.963857 0.457674
369 4 0.706374 0.982769 0.466391
370 1 0.764128 0.976363 0.404272
371 3 0.762738 0.997094 0.3764
372 4 0.768692 0.965426 0.372438
373 1 0.406677 0.863822 0.55304
374 3 0.428283 0.855995 0.611576
375 5 0.402647 0.868089 0.602784
376 1 0.447856 0.839145 0.544703
377 3 0.431501 0.829053 0.606753
378 4 0.466244 0.844845 0.566271
379 1 0.443994 0.806289 0.585943
380 3 0.448295 0.793774 0.518725
381 5 0.464414 0.80659 0.608325
382 1 0.461081 0.7736 0.568372
383 3 0.462573 0.757167 0.621947
384 4 0.483082 0.772541 0.568269
385 1 0.425006 0.748756 0.606443
386 3 0.419769 0.730541 0.562722
387 4 0.403546 0.751699 0.59838
388 1 0.456707 0.721154 0.580603
389 3 0.446715 0.710747 0.648062
390 4 0.478152 0.719623 0.592765
391 1 0.425372 0.693971 0.606925
392 3 0.42072 0.681187 0.539845
393 5 0.444525 0.688646 0.626673
394 1 0.413084 0.660223 0.594694
395 3 0.44221 0.655154 0.63404
396 5 0.398983 0.658821 0.635743
397 1 0.435232 0.631062 0.639931
398 3 0.44673 0.626281 0.564651
399 5 0.448202 0.642093 0.654293
400 1 0.482497 0.619912 0.59149
401 3 0.497798 0.609653 0.654022
402 4 0.492781 0.631165 0.570818
403 1 0.517942 0.593796 0.599207
404 3 0.522682 0.584782 0.524031
405 5 0.536043 0.600958 0.582139
406 1 0.532688 0.562574 0.554626
407 3 0.508755 0.550793 0.59466
408 4 0.551793 0.556308 0.568303
409 1 0.491654 0.54033 0.521309
410 3 0.484457 0.523888 0.574574
411 5 0.484433 0.546807 0.565447
412 1 0.522082 0.514167 0.568923
413 3 0.546585 0.516748 0.512317
414 5 0.534184 0.522717 0.600483
415 1 0.567036 0.496815 0.535194
416 3 0.58342 0.503175 0.603549
417 5 0.568501 0.485147 0.565657
418 1 0.616364 0.510184 0.564514
419 3 0.62378 0.525048 0.505151
420 4 0.632309 0.500204 0.56913
421 1 0.646616 0.539438 0.564617
422 3 0.668734 0.538074 0.628975
423 4 0.634884 0.550718 0.580362
424 1 0.702044 0.537832 0.574608
425 3 0.716906 0.550932 0.517692
426 4 0.710089 0.525559 0.558381
427 1 0.732281 0.567383 0.583359
428 3 0.756448 0.567105 0.64317
429 4 0.721251 0.577939 0.605995
430 1 0.787431 0.568497 0.585599
431 3 0.797715 0.584596 0.534918
432 4 0.797188 0.558071 0.559828
433 1 0.820697 0.59634 0.598105
434 3 0.847847 0.593286 0.648165
435 4 0.813967 0.606683 0.628803
436 1 0.875013 0.591355 0.581637
437 3 0.900598 0.595895 0.528958
438 4 0.879811 0.578357 0.564617
439 1 0.899677 0.621732 0.540948
440 3 0.921693 0.619207 0.602928
441 4 0.889437 0.633736 0.553833
442 1 0.954285 0.624164 0.555211
443 3 0.962229 0.638174 0.616227
444 4 0.969046 0.619207 0.521723
445 1 0.974049 0.657104 0.563135
446 3 0.973478 0.675254 0.517726
447 4 0.995626 0.658515 0.551387
448 1 0.935253 0.681112 0.534505
449 3 0.944791 0.691901 0.601551
450 4 0.914086 0.678123 0.546598
451 1 0.949385 0.714377 0.558725
452 3 0.933776 0.72705 0.502084
453 4 0.970655 0.717571 0.548561
454 1 0.918928 0.743705 0.56503
455 3 0.932693 0.755793 0.625771
456 4 0.89779 0.74299 0.5836
457 1 0.940417 0.775772 0.571301
458 3 0.915549 0.786152 0.528682
459 4 0.959991 0.777471 0.549388
460 1 0.917787 0.807617 0.581533
461 3 0.941866 0.816585 0.630319
462 4 0.897848 0.807422 0.60441
463 1 0.937887 0.83999 0.592971
464 3 0.923346 0.85296 0.536193
465 4 0.95885 0.839609 0.574849
466 1 0.914349 0.872001 0.59907
467 3 0.890534 0.873032 0.538398
468 4 0.926871 0.879391 0.564996
469 1 0.85876 0.869931 0.596141
470 3 0.84792 0.87811 0.668493
471 4 0.849851 0.856989 0.595211
472 1 0.821209 0.894134 0.630973
473 3 0.794584 0.905981 0.601861
474 4 0.830717 0.906872 0.633385
475 1 0.770769 0.885871 0.587666
476 3 0.758671 0.879976 0.662154
477 5 0.76713 0.898237 0.612885
478 1 0.728361 0.866421 0.628872
479 3 0.719554 0.85464 0.562481
480 4 0.711025 0.874526 0.640551
481 1 0.709914 0.833918 0.609819
482 3 0.699015 0.8256 0.682171
483 4 0.727015 0.826407 0.592765
484 1 0.674015 0.809195 0.64441
485 3 0.667184 0.797283 0.576572
486 4 0.654969 0.814951 0.659776
487 1 0.661566 0.775345 0.627976
488 3 0.661844 0.764984 0.698984
489 4 0.679296 0.768466 0.610198
490 1 0.626267 0.75505 0.693195
491 3 0.635995 0.739815 0.747528
492 5 0.637893 0.762156 0.730209
493 1 0.655232 0.725397 0.685099
494 3 0.674264 0.724237 0.616021
495 4 0.641993 0.71447 0.675142
496 1 0.70889 0.720709 0.663187
497 3 0.720856 0.706068 0.71814
498 4 0.721866 0.73159 0.677485
499 1 0.733261 0.689431 0.654712
500 3 0.761582 0.689338 0.606167
501 4 0.723694 0.678912 0.627287
502 1 0.78708 0.688308 0.681481
503 3 0.797817 0.67116 0.637037
504 5 0.786869 0.690088 0.628839
505 1 0.795623 0.654653 0.71273
506 3 0.775128 0.64834 0.650749
507 5 0.804767 0.655748 0.66441
508 1 0.751927 0.63395 0.697537
509 3 0.734417 0.632975 0.768165
510 4 0.756682 0.620804 0.681033
511 1 0.700083 0.629976 0.728441
512 3 0.682383 0.6285 0.657261
513 5 0.703783 0.615879 0.726904
514 1 0.647596 0.625111 0.701602
515 3 0.634386 0.623988 0.776606
516 5 0.64589 0.639237 0.694457
517 1 0.597946 0.629735 0.747976
518 3 0.604631 0.640811 0.818053
519 4 0.591948 0.618557 0.776675
520 1 0.617212 0.662099 0.768028
521 3 0.602818 0.673973 0.708183
522 4 0.638365 0.665005 0.754694
523 1 0.582776 0.688939 0.768682
524 3 0.592636 0.701686 0.831697
525 4 0.561726 0.685355 0.781912
526 1 0.599702 0.721962 0.777777
527 3 0.57201 0.729687 0.737399
528 5 0.586112 0.720695 0.819832
529 1 0.580567 0.753918 0.752627
530 3 0.606109 0.765551 0.786528
531 4 0.56174 0.755524 0.777812
532 1 0.595825 0.78696 0.751042
533 3 0.570181 0.795956 0.708527
534 4 0.61512 0.788789 0.72596
535 1 0.571542 0.817727 0.759828
536 3 0.58816 0.828784 0.818743
537 4 0.552802 0.815647 0.787149
538 1 0.602905 0.846257 0.761619
539 3 0.59663 0.859895 0.69795
540 4 0.623181 0.84142 0.752248
541 1 0.597624 0.881035 0.74956
542 3 0.604002 0.899621 0.791697
543 4 0.576223 0.884386 0.755693
544 1 0.645299 0.896307 0.792214
545 3 0.645694 0.909685 0.727993
546 4 0.663702 0.888722 0.783669
547 1 0.659401 0.92959 0.778398
548 3 0.685689 0.932106 0.830767
549 4 0.647289 0.940044 0.799311
550 1 0.712971 0.936404 0.765443
551 3 0.716687 0.952252 0.708871
552 4 0.726269 0.926684 0.742222
553 1 0.73468 0.968211 0.766891
554 3 0.763894 0.958872 0.79149
555 4 0.729721 0.97847 0.800241
556 1 0.787138 0.970941 0.738088
557 3 0.786773 0.991672 0.71025
558 4 0.791176 0.959902 0.706253
559 1 0.415527 0.864685 0.719966
560 3 0.436943 0.856645 0.778433
561 5 0.411609 0.868991 0.769712
562 1 0.456092 0.8396 0.711628
563 3 0.439503 0.829666 0.773678
564 4 0.474612 0.845115 0.733196
565 1 0.45144 0.80679 0.752834
566 3 0.455434 0.794229 0.68565
567 5 0.471868 0.80689 0.775202
568 1 0.467722 0.773934 0.735263
569 3 0.468819 0.757483 0.788872
570 4 0.489709 0.772662 0.735194
571 1 0.431048 0.749443 0.773333
572 3 0.425372 0.731283 0.729681
573 4 0.409661 0.752599 0.765271
574 1 0.462075 0.721535 0.747528
575 3 0.451835 0.71123 0.814987
576 4 0.483492 0.71979 0.759655
577 1 0.430082 0.694658 0.77385
578 3 0.425123 0.68193 0.706804
579 5 0.449103 0.689138 0.793567
580 1 0.416975 0.661041 0.761619
581 3 0.445984 0.655684 0.80093
582 5 0.402844 0.65978 0.802674
583 1 0.438406 0.631666 0.806856
584 3 0.449787 0.626773 0.731576
585 5 0.451641 0.642569 0.821218
586 1 0.485408 0.620052 0.758381
587 3 0.500446 0.609644 0.820947
588 4 0.495955 0.631211 0.737709
589 1 0.52021 0.593601 0.766098
590 3 0.52473 0.58454 0.690922
591 5 0.538473 0.600587 0.748981
592 1 0.53418 0.562231 0.721516
593 3 0.50997 0.550691 0.761585
594 4 0.553139 0.555778 0.735228
595 1 0.49262 0.540395 0.6882
596 3 0.485028 0.524018 0.741464
597 5 0.485545 0.546945 0.732319
598 1 0.522418 0.513935 0.735814
599 3 0.546965 0.516275 0.679208
600 5 0.534723 0.522364 0.767389
601 1 0.566933 0.496138 0.702084
602 3 0.583478 0.502339 0.770474
603 5 0.568114 0.484457 0.732555
604 1 0.616583 0.509033 0.731404
605 3 0.624351 0.523823 0.672076
606 4 0.63228 0.498895 0.736055
607 1 0.647552 0.537981 0.731508
608 3 0.669627 0.536403 0.795866
609 4 0.636083 0.549382 0.747252
610 1 0.702921 0.535836 0.741464
611 3 0.718106 0.548787 0.684582
612 4 0.710675 0.523479 0.725271
613 1 0.733876 0.56509 0.750284
614 3 0.758028 0.56457 0.810095
615 4 0.723094 0.575748 0.77292
616 1 0.789055 0.565657 0.752489
617 3 0.799719 0.581653 0.701843
618 4 0.798549 0.555138 0.726718
619 1 0.822979 0.593174 0.76503
620 3 0.850056 0.589851 0.815056
621 4 0.816513 0.603582 0.795693
622 1 0.877178 0.58765 0.748527
623 3 0.902866 0.591949 0.695848
624 4 0.881669 0.574616 0.731508
625 1 0.902573 0.617786 0.707838
626 3 0.924531 0.615047 0.769853
627 4 0.892626 0.629893 0.720758
628 1 0.95724 0.61968 0.722101
629 3 0.96552 0.633615 0.783118
630 4 0.971869 0.614583 0.688613
631 1 0.977808 0.652425 0.730026
632 3 0.977662 0.670575 0.684651
633 4 0.999415 0.653622 0.718312
634 1 0.939584 0.676814 0.701395
635 3 0.949385 0.687509 0.768476
636 4 0.918357 0.674029 0.713523
637 1 0.954519 0.70993 0.72565
638 3 0.939218 0.722751 0.669009
639 4 0.975877 0.71291 0.715452
640 1 0.92478 0.739555 0.731921
641 3 0.938838 0.751504 0.792661
642 4 0.903626 0.739045 0.750491
643 1 0.947059 0.771409 0.738226
644 3 0.922439 0.78203 0.695572
645 4 0.966661 0.772913 0.716313
646 1 0.925204 0.803466 0.748458
647 3 0.949502 0.812193 0.797244
648 4 0.905265 0.803485 0.771335
649 1 0.946093 0.835645 0.759896
650 3 0.93186 0.848745 0.703083
651 4 0.967042 0.835051 0.741774
652 1 0.923331 0.867888 0.765995
653 3 0.899545 0.869142 0.705323
654 4 0.936029 0.875148 0.731886
655 1 0.867698 0.866347 0.763032
656 3 0.857078 0.874638 0.835383
657 4 0.858482 0.853498 0.762136
658 1 0.830732 0.890922 0.797898
659 3 0.804415 0.903028 0.768785
660 4 0.840562 0.903567 0.800275
661 1 0.780102 0.88316 0.754591
662 3 0.767858 0.877377 0.829078
663 5 0.776778 0.89555 0.779888
664 1 0.73724 0.864128 0.795797
665 3 0.728141 0.85243 0.729406
666 4 0.72011 0.8724 0.807476
667 1 0.717989 0.831811 0.776744
668 3 0.7069 0.823585 0.849096
669 4 0.734914 0.824123 0.75969
670 1 0.681505 0.80744 0.811335
671 3 0.674366 0.795594 0.743497
672 4 0.662605 0.813382 0.826701
673 1 0.668222 0.773721 0.794901
674 3 0.668251 0.76336 0.865874
675 4 0.685776 0.766655 0.777123
676 1 0.63244 0.753769 0.86012
677 3 0.641803 0.738441 0.914453
678 5 0.644235 0.760762 0.897135
679 1 0.660688 0.723838 0.852024
680 3 0.679691 0.722482 0.782946
681 4 0.647172 0.71304 0.842067
682 1 0.714215 0.71862 0.830112
683 3 0.72583 0.703858 0.88503
684 4 0.727453 0.729371 0.84441
685 1 0.737825 0.68711 0.821637
686 3 0.766132 0.686739 0.773058
687 4 0.727995 0.676675 0.794212
688 1 0.791629 0.685457 0.848406
689 3 0.801928 0.668208 0.803962
690 5 0.791462 0.68725 0.795769
691 1 0.799339 0.651719 0.879655
692 3 0.778683 0.64561 0.81764
693 5 0.808522 0.652721 0.831348
694 1 0.755131 0.631452 0.864462
695 3 0.737606 0.630645 0.935125
696 4 0.759563 0.61826 0.847924
697 1 0.703199 0.62798 0.895331
698 3 0.685469 0.62668 0.824152
699 5 0.706542 0.613847 0.893778
700 1 0.650609 0.623635 0.868493
701 3 0.63737 0.622642 0.943531
702 5 0.649239 0.637775 0.861337
703 1 0.601077 0.628741 0.914901
704 3 0.60804 0.639752 0.984978
705 4 0.594816 0.617628 0.9436
706 1 0.621118 0.66092 0.934918
707 3 0.607031 0.672933 0.875073
708 4 0.642344 0.663612 0.921585
709 1 0.587355 0.688094 0.935607
710 3 0.597522 0.700739 0.998553
711 4 0.566217 0.684705 0.948837
712 1 0.60507 0.72095 0.944703
713 3 0.577583 0.728934 0.904289
714 5 0.591432 0.719812 0.986721
715 1 0.586711 0.753082 0.919517
716 3 0.612531 0.764464 0.953419
717 4 0.567928 0.754874 0.944737
718 1 0.602788 0.785976 0.917933
719 3 0.577349 0.795222 0.875417
720 4 0.622113 0.787609 0.892885
721 1 0.579251 0.816966 0.926753
722 3 0.596132 0.827865 0.985633
723 4 0.560453 0.815072 0.95404
724 1 0.611302 0.845198 0.928578
725 3 0.605363 0.858883 0.864841
726 4 0.63146 0.840148 0.919139
727 1 0.60687 0.880013 0.916485
728 3 0.613701 0.898535 0.958622
729 4 0.585541 0.883569 0.922584
730 1 0.65491 0.894812 0.959104
731 3 0.655627 0.90819 0.894883
732 4 0.673123 0.887051 0.950594
733 1 0.669817 0.927965 0.945288
734 3 0.696163 0.930221 0.997657
735 4 0.657953 0.93854 0.966201
736 1 0.723548 0.934241 0.932334
737 3 0.727644 0.95007 0.875762
738 4 0.736611 0.9244 0.909147
739 1 0.746017 0.965844 0.933816
740 3 0.775011 0.956216 0.958415
741 4 0.741336 0.97614 0.967131
742 1 0.798549 0.968054 0.905013
743 3 0.79868 0.988803 0.87714
744 4 0.802308 0.956978 0.873178
745 1 0.397856 0.862875 0.386115
746 3 0.419652 0.855262 0.444651
747 5 0.393696 0.867093 0.435856
748 1 0.43962 0.838607 0.377812
749 3 0.423529 0.828357 0.439828
750 4 0.457877 0.844483 0.39938
751 1 0.436578 0.805723 0.419018
752 3 0.441171 0.793245 0.3518
753 5 0.457002 0.806222 0.441327
754 1 0.454439 0.773201 0.401447
755 3 0.456341 0.756777 0.455056
756 4 0.47647 0.772365 0.401378
757 1 0.418979 0.748004 0.439483
758 3 0.414181 0.729742 0.395831
759 4 0.397446 0.750733 0.431455
760 1 0.451352 0.720718 0.413678
761 3 0.44161 0.710218 0.481137
762 4 0.472827 0.719381 0.425806
763 1 0.420676 0.693228 0.440035
764 3 0.416346 0.680407 0.372955
765 5 0.439956 0.688092 0.459781
766 1 0.409207 0.659369 0.427804
767 3 0.438465 0.654579 0.467115
768 5 0.395145 0.657831 0.468861
769 1 0.432057 0.630431 0.47304
770 3 0.443672 0.625761 0.397761
771 5 0.444765 0.641587 0.487376
772 1 0.4796 0.619745 0.424565
773 3 0.495151 0.609635 0.487097
774 4 0.489606 0.6311 0.403893
775 1 0.515675 0.593982 0.432282
776 3 0.520648 0.585023 0.357106
777 5 0.533592 0.601324 0.415195
778 1 0.531181 0.562899 0.3877
779 3 0.507526 0.550895 0.427769
780 4 0.550432 0.556818 0.401413
781 1 0.490689 0.540255 0.354384
782 3 0.483887 0.523739 0.407649
783 5 0.483298 0.546667 0.398498
784 1 0.521775 0.51439 0.401998
785 3 0.54619 0.517222 0.345392
786 5 0.533662 0.523058 0.433567
787 1 0.567124 0.497484 0.368303
788 3 0.583361 0.504001 0.436624
789 5 0.568866 0.485835 0.39879
790 1 0.616115 0.511336 0.397623
791 3 0.623166 0.526274 0.33826
792 4 0.632309 0.501513 0.40224
793 1 0.645665 0.540887 0.397692
794 3 0.667813 0.539736 0.462084
795 4 0.633655 0.552055 0.413437
796 1 0.701122 0.539838 0.407683
797 3 0.715663 0.553077 0.350767
798 4 0.70946 0.527638 0.391456
799 1 0.730628 0.569667 0.416468
800 3 0.754809 0.569621 0.476245
801 4 0.719335 0.580112 0.439104
802 1 0.785749 0.57132 0.418674
803 3 0.795638 0.587511 0.368028
804 4 0.795755 0.560996 0.392903
805 1 0.818327 0.599487 0.431215
806 3 0.845565 0.596693 0.48124
807 4 0.811349 0.609765 0.461878
808 1 0.872745 0.595031 0.414746
809 3 0.898228 0.599831 0.362033
810 4 0.87788 0.582089 0.397692
811 1 0.896678 0.625659 0.374057
812 3 0.918767 0.623338 0.436038
813 4 0.886145 0.637552 0.386942
814 1 0.951228 0.628611 0.388286
815 3 0.958835 0.642705 0.449302
816 4 0.966105 0.623802 0.354832
817 1 0.970201 0.661746 0.39621
818 3 0.969177 0.679887 0.350835
819 4 0.99172 0.663371 0.384496
820 1 0.930806 0.685374 0.36758
821 3 0.940081 0.696255 0.43466
822 4 0.909727 0.682171 0.379673
823 1 0.944133 0.718769 0.3918
824 3 0.928217 0.731274 0.33516
825 4 0.965315 0.722166 0.381637
826 1 0.912959 0.7478 0.398105
827 3 0.926432 0.760017 0.458846
828 4 0.89185 0.746871 0.416676
829 1 0.933674 0.780071 0.40441
830 3 0.908556 0.790209 0.361757
831 4 0.953203 0.781965 0.382464
832 1 0.910282 0.811692 0.414643
833 3 0.934112 0.820893 0.463428
834 4 0.890344 0.811302 0.43752
835 1 0.929578 0.844261 0.426081
836 3 0.914729 0.857082 0.369268
837 4 0.950555 0.844084 0.407924
838 1 0.905279 0.87604 0.432179
839 3 0.881435 0.876829 0.371473
840 4 0.917611 0.88355 0.398105
841 1 0.849734 0.873412 0.429216
842 3 0.838705 0.881499 0.501568
843 4 0.841147 0.860387 0.428321
844 1 0.811597 0.897254 0.464083
845 3 0.784681 0.90884 0.434936
846 4 0.820799 0.910075 0.466495
847 1 0.761363 0.88849 0.420775
848 3 0.749411 0.882483 0.495263
849 5 0.757426 0.900811 0.446039
850 1 0.719437 0.868631 0.461947
851 3 0.710909 0.856766 0.39559
852 4 0.701897 0.876569 0.473661
853 1 0.70178 0.835951 0.442929
854 3 0.691101 0.827521 0.515246
855 4 0.719057 0.828608 0.42584
856 1 0.666481 0.810875 0.477485
857 3 0.659942 0.798899 0.409681
858 4 0.647318 0.816446 0.492851
859 1 0.654866 0.776914 0.461085
860 3 0.655393 0.766563 0.532059
861 4 0.672757 0.770202 0.443273
862 1 0.620065 0.756267 0.526305
863 3 0.630158 0.741134 0.580637
864 5 0.631505 0.763497 0.563308
865 1 0.649746 0.726911 0.518208
866 3 0.668807 0.725936 0.44913
867 4 0.636771 0.715853 0.508251
868 1 0.703506 0.722742 0.496296
869 3 0.715838 0.708222 0.551215
870 4 0.716219 0.733753 0.510595
871 1 0.728639 0.691715 0.487787
872 3 0.75696 0.691891 0.439208
873 4 0.719335 0.681094 0.460362
874 1 0.782487 0.691111 0.514591
875 3 0.793648 0.674075 0.470146
876 5 0.782248 0.692902 0.461954
877 1 0.791849 0.65755 0.54584
878 3 0.7715 0.651032 0.483859
879 5 0.800984 0.658722 0.497536
880 1 0.748636 0.636419 0.530612
881 3 0.731155 0.635268 0.601275
882 4 0.753727 0.62332 0.514108
883 1 0.696909 0.631935 0.561516
884 3 0.679252 0.630283 0.490336
885 5 0.700937 0.617874 0.559964
886 1 0.644553 0.62656 0.534677
887 3 0.631373 0.625306 0.609716
888 5 0.642493 0.640667 0.527557
889 1 0.594801 0.630691 0.581085
890 3 0.601223 0.641841 0.651163
891 4 0.589096 0.619467 0.60975
892 1 0.613262 0.663241 0.601103
893 3 0.59859 0.674976 0.541258
894 4 0.634357 0.66636 0.587769
895 1 0.578198 0.689747 0.601791
896 3 0.587735 0.702586 0.664772
897 4 0.557235 0.68595 0.615021
898 1 0.594304 0.722928 0.610852
899 3 0.566436 0.730383 0.570474
900 5 0.580757 0.721523 0.652924
901 1 0.574394 0.754688 0.585702
902 3 0.599643 0.766572 0.619604
903 4 0.555538 0.756118 0.610922
904 1 0.588862 0.787888 0.584117
905 3 0.562984 0.796624 0.541602
906 4 0.608098 0.789893 0.55907
907 1 0.563832 0.818405 0.592937
908 3 0.580172 0.82962 0.651818
909 4 0.545122 0.816139 0.62019
910 1 0.594494 0.847241 0.594729
911 3 0.587882 0.860814 0.531025
912 4 0.614871 0.842599 0.585323