LAMMPS (29 Aug 2024 - Update 1)
Reading data file ...
  orthogonal box = (-200 -200 -200) to (200 200 200)
  1 by 1 by 1 MPI processor grid
  reading atoms ...
  1860 atoms
  scanning bonds ...
  3 = max bonds/atom
  orthogonal box = (-200.04 -200.04 -200.04) to (200.04 200.04 200.04)
  1 by 1 by 1 MPI processor grid
  reading bonds ...
  2460 bonds
Finding 1-2 1-3 1-4 neighbors ...
  special bond factors lj:    0        1        1       
  special bond factors coul:  0        1        1       
     5 = max # of 1-2 neighbors
     5 = max # of special neighbors
  special bonds CPU = 0.000 seconds
  read_data CPU = 0.019 seconds
620 atoms in group alpha_carbons
620 atoms in group beta_atoms
620 atoms in group oxygens
Chain flag on
Chi flag on
Rama flag on
Rama_P flag on
SSWeight flag on
ABC flag on
Dssp_Hdrgn flag on
P_AP flag on
Water flag on
Burial flag on
Helix flag on

Fix backbone Pair List cutoff 15.0000

CITE-CITE-CITE-CITE-CITE-CITE-CITE-CITE-CITE-CITE-CITE-CITE-CITE

Your simulation uses code contributions which should be cited:
- Type Label Framework: https://doi.org/10.1021/acs.jpcb.3c08419
The log file lists these citations in BibTeX format.

CITE-CITE-CITE-CITE-CITE-CITE-CITE-CITE-CITE-CITE-CITE-CITE-CITE

Generated 0 of 10 mixed pair_coeff terms from geometric mixing rule
Neighbor list info ...
  update: every = 1 steps, delay = 5 steps, check = yes
  max neighbors/atom: 2000, page size: 100000
  master list distance cutoff = 14.5
  ghost atom cutoff = 25
  binsize = 7.25, bins = 10 15 5
  2 neighbor lists, perpetual/occasional/extra = 2 0 0
  (1) pair vexcluded, perpetual
      attributes: half, newton on
      pair build: half/bin/newton
      stencil: half/bin/3d
      bin: standard
  (2) fix backbone, perpetual
      attributes: half, newton on, cut 25
      pair build: half/bin/newton
      stencil: half/bin/3d
      bin: standard
Setting up Verlet run ...
  Unit style    : real
  Current step  : 0
  Time step     : 2
Per MPI rank memory allocation (min/avg/max) = 9.178 | 9.178 | 9.178 Mbytes
   Step          Temp          E_pair         E_mol          TotEng         Press          Volume    
         0   300            678.84612      7355.744       9696.9879     -11812.941      213713.73    
Loop time of 8.13e-07 on 1 procs for 0 steps with 1860 atoms

123.0% CPU use with 1 MPI tasks x no OpenMP threads

MPI task timing breakdown:
Section |  min time  |  avg time  |  max time  |%varavg| %total
---------------------------------------------------------------
Pair    | 0          | 0          | 0          |   0.0 |  0.00
Bond    | 0          | 0          | 0          |   0.0 |  0.00
Neigh   | 0          | 0          | 0          |   0.0 |  0.00
Comm    | 0          | 0          | 0          |   0.0 |  0.00
Output  | 0          | 0          | 0          |   0.0 |  0.00
Modify  | 0          | 0          | 0          |   0.0 |  0.00
Other   |            | 8.13e-07   |            |       |100.00

Nlocal:           1860 ave        1860 max        1860 min
Histogram: 1 0 0 0 0 0 0 0 0 0
Nghost:              0 ave           0 max           0 min
Histogram: 1 0 0 0 0 0 0 0 0 0
Neighs:         130642 ave      130642 max      130642 min
Histogram: 1 0 0 0 0 0 0 0 0 0

Total # of neighbors = 130642
Ave neighs/atom = 70.237634
Ave special neighs/atom = 2.6451613
Neighbor list builds = 0
Dangerous builds = 0
Total wall time: 0:00:00
