LAMMPS protain data file

         435  atoms
         570  bonds
           0  angles
           0  dihedrals
           0  impropers

           5  atom types
           5  bond types
           0  angle types
           0  dihedral types
           0  improper types

-200.0	200.0	xlo xhi
-200.0	200.0	ylo yhi
-200.0	200.0	zlo zhi

Masses

           1	27.0
           2	14.0
           3	28.0
           4	60.0
           5	60.0

Atoms

           1	1	1	1	0.0	106.76599884	85.52400208	104.50299835
           2	1	1	3	0.0	105.37999725	87.14099884	105.60500336
           3	1	1	4	0.0	106.98500061	84.78800201	105.83399963
           4	1	2	1	0.0	103.52799988	87.26300049	103.47299957
           5	1	2	3	0.0	103.44000244	89.3690033	104.67299652
           6	1	2	4	0.0	102.4960022	86.7559967	104.48500061
           7	1	3	1	0.0	104.84999847	90.73400116	102.63200378
           8	1	3	3	0.0	105.32900238	91.98000336	104.65200043
           9	1	3	4	0.0	103.56199646	91.56199646	102.55599976
          10	1	4	1	0.0	107.94400024	91.02899933	104.82099915
          11	1	4	3	0.0	109.22799683	91.86699677	102.97299957
          12	1	4	4	0.0	108.67199707	89.81400299	105.39900208
          13	1	5	1	0.0	110.33599854	93.96499634	104.45300293
          14	1	5	3	0.0	111.13899994	94.35299683	106.6760025
          15	1	5	4	0.0	109.56600189	95.2539978	104.13999939
          16	1	6	1	0.0	113.76599884	94.73000336	105.89199829
          17	1	6	3	0.0	114.86100006	95.7440033	104.01599884
          18	1	6	4	0.0	114.61799622	93.51300049	106.26300049
          19	1	7	1	0.0	115.97200012	97.81700134	105.57299805
          20	1	7	3	0.0	117.15899658	97.76899719	107.65299988
          21	1	7	4	0.0	115.26999664	99.18299866	105.66699982
          22	1	8	1	0.0	119.67500305	97.74500275	106.43599701
          23	1	8	3	0.0	120.5739975	99.46700287	105.04000092
          24	1	8	4	0.0	120.48100281	96.55699921	105.91999817
          25	1	9	1	0.0	121.84200287	100.79699707	107.16400146
          26	1	9	3	0.0	123.41899872	100.48799896	108.94300079
          27	1	9	4	0.0	121.25499725	101.98400116	107.91699982
          28	1	10	1	0.0	125.4260025	99.54499817	107.3010025
          29	1	10	3	0.0	127.3690033	100.43800354	108.34500122
          30	1	10	4	0.0	126.10099792	98.72100067	106.20300293
          31	1	11	1	0.0	126.83699799	103.05599976	107.70800018
          32	1	11	3	0.0	124.95899963	103.93499756	108.89600372
          33	1	11	5	0.0	127.24989566	102.35739998	109.01684466
          34	1	12	1	0.0	126.17099762	106.33300018	109.48500061
          35	1	12	3	0.0	125.24299622	107.10700226	107.40100098
          36	1	12	4	0.0	127.23000336	107.33100128	109.94499969
          37	1	13	1	0.0	123.07700348	108.3690033	108.63700104
          38	1	13	3	0.0	122.93800354	109.93499756	110.44300079
          39	1	13	4	0.0	121.68800354	107.73999786	108.81500244
          40	1	14	1	0.0	123.41600037	112.13500214	108.84899902
          41	1	14	3	0.0	124.36599731	113.02100372	110.85199738
          42	1	14	5	0.0	124.31318262	112.49728686	107.65091147
          43	1	15	1	0.0	126.94499969	112.18699646	110.26599884
          44	1	15	3	0.0	127.84300232	113.51599884	108.47599792
          45	1	15	4	0.0	127.76300049	110.90200043	110.38400269
          46	1	16	1	0.0	129.48100281	115.01599884	110.18599701
          47	1	16	3	0.0	131.05299377	114.33599854	111.85600281
          48	1	16	4	0.0	129.1000061	116.37599945	110.76499939
          49	1	17	1	0.0	133.21400452	114.34999847	110.09700012
          50	1	17	3	0.0	135.34700012	115.39800262	110.02799988
          51	1	17	4	0.0	133.67199707	113.04100037	109.43900299
          52	1	18	1	0.0	134.47999573	117.64199829	108.65899658
          53	1	18	3	0.0	133.82699585	118.83699799	110.6190033
          54	1	18	5	0.0	135.46979287	117.29082169	109.78530765
          55	1	19	1	0.0	133.63499451	121.29000092	109.31600189
          56	1	19	3	0.0	132.20599365	121.80400085	107.46700287
          57	1	19	4	0.0	134.77400208	122.29599762	109.14800262
          58	1	20	1	0.0	130.24699402	123.00299835	109.08399963
          59	1	20	3	0.0	130.16099548	124.51300049	110.94000244
          60	1	20	4	0.0	128.97999573	122.22299957	109.46399689
          61	1	21	1	0.0	130.33000183	126.80400085	109.33000183
          62	1	21	3	0.0	128.95799255	127.48899841	107.49299622
          63	1	21	4	0.0	131.6289978	127.53399658	108.94799805
          64	1	22	1	0.0	127.14600372	128.81900024	109.06199646
          65	1	22	3	0.0	126.84899902	130.66299438	107.5719986
          66	1	22	5	0.0	127.36638137	128.20673842	107.66622816
          67	1	23	1	0.0	128.82699585	132.20300293	108.7539978
          68	1	23	3	0.0	130.727005	132.07200623	110.1989975
          69	1	23	4	0.0	127.90399933	133.17300415	109.49099731
          70	1	24	1	0.0	132.41499329	133.40499878	108.45700073
          71	1	24	3	0.0	132.66200256	134.93200684	106.63700104
          72	1	24	4	0.0	133.26100159	132.28999329	107.84600067
          73	1	25	1	0.0	133.55200195	137.03700256	108.26599884
          74	1	25	3	0.0	135.25100708	137.18600464	109.94499969
          75	1	25	4	0.0	132.54400635	138.07200623	108.79599762
          76	1	26	1	0.0	137.147995	138.22900391	108.22599792
          77	1	26	3	0.0	137.06399536	139.89300537	106.50299835
          78	1	26	5	0.0	136.60005171	138.94655056	109.47358959
          79	1	27	1	0.0	138.6309967	141.67300415	107.89099884
          80	1	27	3	0.0	140.36599731	141.68600464	109.54399872
          81	1	27	5	0.0	139.38791665	141.07607867	106.69001917
          82	1	28	1	0.0	141.85499573	143.6269989	108.17500305
          83	1	28	3	0.0	142.56500244	145.91299438	108.51499939
          84	1	28	4	0.0	142.94200134	143.21299744	107.15200043
          85	1	29	1	0.0	139.89900208	146.91400146	108.36699677
          86	1	29	3	0.0	141.15699768	148.92399597	108.75499725
          87	1	29	4	0.0	138.44799805	146.97999573	108.8789978
          88	2	30	1	0.0	105.30699921	86.21499634	109.27700043
          89	2	30	3	0.0	103.98200226	87.88200378	110.37799835
          90	2	30	4	0.0	105.4980011	85.47100067	110.60800171
          91	2	31	1	0.0	102.13700104	88.07299805	108.24500275
          92	2	31	3	0.0	102.1269989	90.18099976	109.44599915
          93	2	31	4	0.0	101.08599854	87.60399628	109.25700378
          94	2	32	1	0.0	103.58699799	91.49199677	107.40599823
          95	2	32	3	0.0	104.11199951	92.72000122	109.4260025
          96	2	32	4	0.0	102.33100128	92.36799622	107.32900238
          97	2	33	1	0.0	106.68900299	91.67199707	109.59500122
          98	2	33	3	0.0	108.0039978	92.46199799	107.74900055
          99	2	33	4	0.0	107.3710022	90.43099976	110.1740036
         100	2	34	1	0.0	109.18900299	94.51699829	109.22899628
         101	2	34	3	0.0	110.00499725	94.875	111.45200348
         102	2	34	4	0.0	108.46700287	95.83499908	108.91600037
         103	2	35	1	0.0	112.64399719	95.15499878	110.66899872
         104	2	35	3	0.0	113.77600098	96.1269989	108.79299927
         105	2	35	4	0.0	113.44999695	93.90599823	111.04000092
         106	2	36	1	0.0	114.96299744	98.15799713	110.35099792
         107	2	36	3	0.0	116.14700317	98.06500244	112.43099976
         108	2	36	4	0.0	114.31199646	99.5490036	110.44499969
         109	2	37	1	0.0	118.66100311	97.94799805	111.21499634
         110	2	37	3	0.0	119.6230011	99.63500214	109.82099915
         111	2	37	4	0.0	119.42199707	96.73100281	110.69999695
         112	2	38	1	0.0	120.94000244	100.91699982	111.94499969
         113	2	38	3	0.0	122.5039978	100.55000305	113.72499847
         114	2	38	4	0.0	120.39600372	102.125	112.69799805
         115	2	39	1	0.0	124.47399902	99.53199768	112.08300018
         116	2	39	3	0.0	126.4489975	100.35299683	113.12799835
         117	2	39	4	0.0	125.1190033	98.68499756	110.98500061
         118	2	40	1	0.0	126.01499939	102.98899841	112.49099731
         119	2	40	3	0.0	124.16999817	103.93699646	113.6780014
         120	2	40	5	0.0	126.40062658	102.27597367	113.80038166
         121	2	41	1	0.0	125.47000122	106.28800201	114.26799774
         122	2	41	3	0.0	124.5719986	107.09600067	112.18299866
         123	2	41	4	0.0	126.56500244	107.2460022	114.72899628
         124	2	42	1	0.0	122.45400238	108.43800354	113.41899872
         125	2	42	3	0.0	122.3730011	110.00700378	115.22499847
         126	2	42	4	0.0	121.04199982	107.86100006	113.59600067
         127	2	43	1	0.0	122.93299866	112.18900299	113.6309967
         128	2	43	3	0.0	123.91400146	113.03900146	115.63500214
         129	2	43	5	0.0	123.84433676	112.51655879	112.43359533
         130	2	44	1	0.0	126.45999908	112.10900116	115.05000305
         131	2	44	3	0.0	127.40799713	113.40399933	113.26000214
         132	2	44	4	0.0	127.23000336	110.79499817	115.16799927
         133	2	45	1	0.0	129.1000061	114.84300232	114.97100067
         134	2	45	3	0.0	130.64500427	114.10399628	116.64099884
         135	2	45	4	0.0	128.77000427	116.21499634	115.5490036
         136	2	46	1	0.0	132.80599976	114.03800201	114.88300323
         137	2	46	3	0.0	134.97599792	115.0059967	114.81500244
         138	2	46	4	0.0	133.21600342	112.71299744	114.22499847
         139	2	47	1	0.0	134.19400024	117.27999878	113.44599915
         140	2	47	3	0.0	133.58500671	118.49900055	115.40599823
         141	2	47	5	0.0	135.16879166	116.89216264	114.5733699
         142	2	48	1	0.0	133.48399353	120.95800018	114.10299683
         143	2	48	3	0.0	132.07600403	121.52400208	112.25299835
         144	2	48	4	0.0	134.66099548	121.91999817	113.93499756
         145	2	49	1	0.0	130.16200256	122.79499817	113.87000275
         146	2	49	3	0.0	130.13200378	124.30799866	115.72599792
         147	2	49	4	0.0	128.86700439	122.06300354	114.24900055
         148	2	50	1	0.0	130.38600159	126.58999634	114.11599731
         149	2	50	3	0.0	129.04200745	127.32700348	112.27899933
         150	2	50	4	0.0	131.71200562	127.27200317	113.73500061
         151	2	51	1	0.0	127.27999878	128.7230072	113.84700012
         152	2	51	3	0.0	127.05200195	130.57600403	112.35700226
         153	2	51	5	0.0	127.47709242	128.10282791	112.45124522
         154	2	52	1	0.0	129.08599854	132.04200745	113.54000092
         155	2	52	3	0.0	130.97900391	131.83999634	114.98600006
         156	2	52	4	0.0	128.19900513	133.04499817	114.27600098
         157	2	53	1	0.0	132.71600342	133.11000061	113.24500275
         158	2	53	3	0.0	133.02000427	134.6269989	111.42500305
         159	2	53	4	0.0	133.52000427	131.96400452	112.63400269
         160	2	54	1	0.0	133.98699951	136.69700623	113.05400085
         161	2	54	3	0.0	135.69000244	136.78300476	114.73400116
         162	2	54	4	0.0	133.01800537	137.76899719	113.58399963
         163	2	55	1	0.0	137.625	137.75500488	113.01499939
         164	2	55	3	0.0	137.60299683	139.41999817	111.29299927
         165	2	55	5	0.0	137.10407147	138.49194106	114.26286097
         166	2	56	1	0.0	139.23399353	141.14100647	112.68099976
         167	2	56	3	0.0	140.96800232	141.08999634	114.33599854
         168	2	56	5	0.0	139.96864419	140.51558792	111.48069144
         169	2	57	1	0.0	142.52900696	142.97399902	112.96700287
         170	2	57	3	0.0	143.32299805	145.23199463	113.30699921
         171	2	57	4	0.0	143.60099792	142.52000427	111.94400024
         172	2	58	1	0.0	140.69700623	146.33200073	113.15799713
         173	2	58	3	0.0	142.02799988	148.29400635	113.54699707
         174	2	58	4	0.0	139.24899292	146.45100403	113.66999817
         175	3	59	1	0.0	108.35299683	84.80000305	99.85399628
         176	3	59	3	0.0	106.90399933	86.35800171	100.95899963
         177	3	59	4	0.0	108.60700226	84.07499695	101.18499756
         178	3	60	1	0.0	105.04100037	86.39900208	98.83300018
         179	3	60	3	0.0	104.8690033	88.5019989	100.03099823
         180	3	60	4	0.0	104.03500366	85.84999847	99.84999847
         181	3	61	1	0.0	106.21299744	89.92099762	97.98300171
         182	3	61	3	0.0	106.64700317	91.19000244	99.99900055
         183	3	61	4	0.0	104.89099884	90.69499969	97.91000366
         184	3	62	1	0.0	109.2990036	90.34899902	100.15899658
         185	3	62	3	0.0	110.54000092	91.23799896	98.30599976
         186	3	62	4	0.0	110.08000183	89.16699982	100.73699951
         187	3	63	1	0.0	111.56500244	93.38300323	99.77899933
         188	3	63	3	0.0	112.35900116	93.80799866	101.9980011
         189	3	63	4	0.0	110.73999786	94.63899994	99.46700287
         190	3	64	1	0.0	114.96499634	94.29399872	101.20300293
         191	3	64	3	0.0	116.00900269	95.34999847	99.3219986
         192	3	64	4	0.0	115.86799622	93.11399841	101.57299805
         193	3	65	1	0.0	117.03800201	97.47100067	100.8710022
         194	3	65	3	0.0	118.23300171	97.47599792	102.9469986
         195	3	65	4	0.0	116.27899933	98.80599976	100.96700287
         196	3	66	1	0.0	120.7440033	97.55599976	101.72100067
         197	3	66	3	0.0	121.56400299	99.31099701	100.31900024
         198	3	66	4	0.0	121.59700012	96.40200043	101.20300293
         199	3	67	1	0.0	122.78299713	100.6969986	102.43599701
         200	3	67	3	0.0	124.3789978	100.45800018	104.20999908
         201	3	67	4	0.0	122.14900208	101.86000061	103.19000244
         202	3	68	1	0.0	126.41699982	99.59700012	102.56199646
         203	3	68	3	0.0	128.32499695	100.57299805	103.59700012
         204	3	68	4	0.0	127.12200165	98.8010025	101.46199799
         205	3	69	1	0.0	127.68099976	103.16500092	102.95800018
         206	3	69	3	0.0	125.77100372	103.96600342	104.15200043
         207	3	69	5	0.0	128.12691771	102.48633175	104.26649755
         208	3	70	1	0.0	126.88400269	106.41400146	104.73300171
         209	3	70	3	0.0	125.91699982	107.14499664	102.65100098
         210	3	70	4	0.0	127.90200043	107.45600128	105.18800354
         211	3	71	1	0.0	123.70300293	108.31700134	103.89399719
         212	3	71	3	0.0	123.5059967	109.87799835	105.69799805
         213	3	71	4	0.0	122.34300232	107.62999725	104.07800293
         214	3	72	1	0.0	123.88500214	112.09400177	104.09899902
         215	3	72	3	0.0	124.80400085	113.02300262	106.09799957
         216	3	72	5	0.0	124.76264901	112.4910371	102.8974588
         217	3	73	1	0.0	127.41300201	112.29699707	105.50299835
         218	3	73	3	0.0	128.24899292	113.65899658	103.70800018
         219	3	73	4	0.0	128.28500366	111.04699707	105.62000275
         220	3	74	1	0.0	129.82899475	115.23000336	105.41000366
         221	3	74	3	0.0	131.43400574	114.6190033	107.07499695
         222	3	74	4	0.0	129.39300537	116.57299805	105.98799896
         223	3	75	1	0.0	133.58500671	114.72100067	105.30799866
         224	3	75	3	0.0	135.67199707	115.85800171	105.22899628
         225	3	75	4	0.0	134.09599304	113.43099976	104.65000153
         226	3	76	1	0.0	134.70599365	118.06099701	103.86100006
         227	3	76	3	0.0	134.01100159	119.23100281	105.82099915
         228	3	76	5	0.0	135.7135066	117.75380157	104.98445394
         229	3	77	1	0.0	133.71099854	121.67199707	104.51499939
         230	3	77	3	0.0	132.25500488	122.12200165	102.67099762
         231	3	77	4	0.0	134.80700684	122.72399902	104.34100342
         232	3	78	1	0.0	130.25300598	123.23999786	104.29399872
         233	3	78	3	0.0	130.11099243	124.7480011	106.14800262
         234	3	78	4	0.0	129.02099609	122.40899658	104.67900085
         235	3	79	1	0.0	130.17700195	127.04100037	104.53399658
         236	3	79	3	0.0	128.77099609	127.66600037	102.70200348
         237	3	79	4	0.0	131.44299316	127.82499695	104.14600372
         238	3	80	1	0.0	126.91100311	128.92100525	104.27500153
         239	3	80	3	0.0	126.53099823	130.7480011	102.78399658
         240	3	80	5	0.0	127.15221728	128.31642577	102.87932987
         241	3	81	1	0.0	128.44700623	132.37199402	103.95600128
         242	3	81	3	0.0	130.35600281	132.32299805	105.39399719
         243	3	81	4	0.0	127.48600006	133.30299377	104.69499969
         244	3	82	1	0.0	131.97900391	133.72399902	103.64399719
         245	3	82	3	0.0	132.15499878	135.2559967	101.82099915
         246	3	82	4	0.0	132.8690033	132.64399719	103.03099823
         247	3	83	1	0.0	132.96200562	137.39900208	103.44300079
         248	3	83	3	0.0	134.65899658	137.6230011	105.11599731
         249	3	83	4	0.0	131.91299438	138.39199829	103.97599792
         250	3	84	1	0.0	136.50500488	138.74200439	103.38800049
         251	3	84	3	0.0	136.34399414	140.397995	101.66300201
         252	3	84	5	0.0	135.93240191	139.43779612	104.63683983
         253	3	85	1	0.0	137.83999634	142.24499512	103.04299927
         254	3	85	3	0.0	139.57899475	142.33299255	104.69000244
         255	3	85	5	0.0	138.61608286	141.67878776	101.83938017
         256	3	86	1	0.0	140.97999573	144.33200073	103.31199646
         257	3	86	3	0.0	141.59399414	146.647995	103.64600372
         258	3	86	4	0.0	142.08000183	143.96400452	102.28500366
         259	3	87	1	0.0	138.88800049	147.53500366	103.5059967
         260	3	87	3	0.0	140.06199646	149.59700012	103.88700104
         261	3	87	4	0.0	137.43800354	147.54100037	104.02400208
         262	4	88	1	0.0	103.84400177	86.95700073	114.03700256
         263	4	88	3	0.0	102.58300018	88.67299652	115.13800049
         264	4	88	4	0.0	104.0059967	86.20600128	115.36799622
         265	4	89	1	0.0	100.7480011	88.93499756	113.0039978
         266	4	89	3	0.0	100.81800079	91.04100037	114.20600128
         267	4	89	4	0.0	99.67900085	88.50700378	114.01499939
         268	4	90	1	0.0	102.32900238	92.29599762	112.16699982
         269	4	90	3	0.0	102.89900208	93.5019989	114.18800354
         270	4	90	4	0.0	101.10700226	93.22000122	112.08899689
         271	4	91	1	0.0	105.43399811	92.35700226	114.35800171
         272	4	91	3	0.0	106.77899933	93.09600067	112.51300049
         273	4	91	4	0.0	106.06700134	91.08999634	114.93599701
         274	4	92	1	0.0	108.04100037	95.10399628	113.9940033
         275	4	92	3	0.0	108.8690033	95.43000031	116.21800232
         276	4	92	4	0.0	107.37000275	96.44799805	113.68099976
         277	4	93	1	0.0	111.51799774	95.60800171	115.43599701
         278	4	93	3	0.0	112.68699646	96.53700256	113.56199646
         279	4	93	4	0.0	112.27500153	94.33000183	115.80799866
         280	4	94	1	0.0	113.94999695	98.51999664	115.1210022
         281	4	94	3	0.0	115.12799835	98.38200378	117.20200348
         282	4	94	4	0.0	113.35299683	99.93599701	115.21600342
         283	4	95	1	0.0	117.63700104	98.16899872	115.98699951
         284	4	95	3	0.0	118.66400146	99.81800079	114.59300232
         285	4	95	4	0.0	118.35099792	96.9240036	115.47100067
         286	4	96	1	0.0	120.02700043	101.04799652	116.71900177
         287	4	96	3	0.0	121.57499695	100.6210022	118.5
         288	4	96	4	0.0	119.52999878	102.27600098	117.47200012
         289	4	97	1	0.0	123.5059967	99.52899933	116.85800171
         290	4	97	3	0.0	125.51000214	100.27300262	117.90499878
         291	4	97	4	0.0	124.11799622	98.65799713	115.76100159
         292	4	98	1	0.0	125.1780014	102.9240036	117.26899719
         293	4	98	3	0.0	123.3690033	103.94100189	118.45500183
         294	4	98	5	0.0	125.53431257	102.19565009	118.57825023
         295	4	99	1	0.0	124.75900269	106.24099731	119.04699707
         296	4	99	3	0.0	123.89399719	107.08399963	116.96199799
         297	4	99	4	0.0	125.88999939	107.15599823	119.50800323
         298	4	100	1	0.0	121.82700348	108.50499725	118.1969986
         299	4	100	3	0.0	121.80599976	110.0759964	120.00299835
         300	4	100	4	0.0	120.39499664	107.98200226	118.3730011
         301	4	101	1	0.0	122.44999695	112.23500061	118.41100311
         302	4	101	3	0.0	123.46199799	113.04599762	120.41500092
         303	4	101	5	0.0	123.37378052	112.52809896	117.21420853
         304	4	102	1	0.0	125.97100067	112.01999664	119.83100128
         305	4	102	3	0.0	126.96900177	113.27799988	118.04199982
         306	4	102	4	0.0	126.68900299	110.67700195	119.9489975
         307	4	103	1	0.0	128.71299744	114.65000153	119.75499725
         308	4	103	3	0.0	130.22799683	113.85199738	121.4260025
         309	4	103	4	0.0	128.43600464	116.03399658	120.33399963
         310	4	104	1	0.0	132.38499451	113.70400238	119.66899872
         311	4	104	3	0.0	134.59100342	114.58799744	119.60199738
         312	4	104	4	0.0	132.7440033	112.36399841	119.01100159
         313	4	105	1	0.0	133.89700317	116.89099884	118.23400116
         314	4	105	3	0.0	133.33500671	118.13200378	120.19400024
         315	4	105	5	0.0	134.85599023	116.46538444	119.36129713
         316	4	106	1	0.0	133.32899475	120.59300232	118.89199829
         317	4	106	3	0.0	131.94400024	121.21399689	117.04199982
         318	4	106	4	0.0	134.54100037	121.51000214	118.72499847
         319	4	107	1	0.0	130.08000183	122.55599976	118.65799713
         320	4	107	3	0.0	130.10600281	124.06800079	120.51399994
         321	4	107	4	0.0	128.75700378	121.875	119.03600311
         322	4	108	1	0.0	130.44900513	126.33999634	118.90599823
         323	4	108	3	0.0	129.13400269	127.12799835	117.06800079
         324	4	108	4	0.0	131.80000305	126.97100067	118.52500153
         325	4	109	1	0.0	127.42700195	128.58999634	118.63500214
         326	4	109	3	0.0	127.27100372	130.45199585	117.14600372
         327	4	109	5	0.0	127.60305007	127.96424247	117.23892221
         328	4	110	1	0.0	129.35899353	131.83799744	118.33100128
         329	4	110	3	0.0	131.24200439	131.56300354	119.77700043
         330	4	110	4	0.0	128.50999451	132.87399292	119.06700134
         331	4	111	1	0.0	133.0269928	132.76600647	118.03800201
         332	4	111	3	0.0	133.38999939	134.27099609	116.21800232
         333	4	111	4	0.0	133.78700256	131.58999634	117.42700195
         334	4	112	1	0.0	134.43499756	136.30099487	117.84899902
         335	4	112	3	0.0	136.13800049	136.32200623	119.52999878
         336	4	112	4	0.0	133.50700378	137.41000366	118.3789978
         337	4	113	1	0.0	138.11000061	137.21899414	117.81300354
         338	4	113	3	0.0	138.15299988	138.88499451	116.09100342
         339	4	113	5	0.0	137.61682714	137.97438052	119.06111064
         340	4	114	1	0.0	139.84899902	140.54200745	117.48100281
         341	4	114	3	0.0	141.57800293	140.42300415	119.13600159
         342	4	114	5	0.0	140.55994834	139.88967712	116.28074608
         343	4	115	1	0.0	143.21099854	142.24699402	117.76899719
         344	4	115	3	0.0	144.09100342	144.4730072	118.11100006
         345	4	115	4	0.0	144.26499939	141.75300598	116.74700165
         346	4	116	1	0.0	141.50799561	145.67199707	117.96099854
         347	4	116	3	0.0	142.91400146	147.58200073	118.35099792
         348	4	116	4	0.0	140.06599426	145.84700012	118.47200012
         349	5	117	1	0.0	102.48000336	87.77799988	118.80699921
         350	5	117	3	0.0	101.28700256	89.53700256	119.91500092
         351	5	117	4	0.0	102.61599731	87.01799774	120.13500214
         352	5	118	1	0.0	99.45800018	89.87400055	117.78600311
         353	5	118	3	0.0	99.61000061	91.97299957	118.99299622
         354	5	118	4	0.0	98.37599945	89.48400116	118.7990036
         355	5	119	1	0.0	101.16300201	93.1760025	116.95400238
         356	5	119	3	0.0	101.78199768	94.35399628	118.97599792
         357	5	119	4	0.0	99.97599792	94.14499664	116.8809967
         358	5	120	1	0.0	104.27200317	93.11299896	119.13800049
         359	5	120	3	0.0	105.64099884	93.80599976	117.29100037
         360	5	120	4	0.0	104.85900116	91.82299805	119.71199799
         361	5	121	1	0.0	106.98100281	95.76200104	118.77500153
         362	5	121	3	0.0	107.82499695	96.05000305	120.9980011
         363	5	121	4	0.0	106.36100006	97.1309967	118.46700287
         364	5	122	1	0.0	110.47699738	96.12999725	120.21099854
         365	5	122	3	0.0	111.67700195	97.01899719	118.33599854
         366	5	122	4	0.0	111.18599701	94.82299805	120.57700348
         367	5	123	1	0.0	113.01699829	98.94999695	119.89700317
         368	5	123	3	0.0	114.19300079	98.76100159	121.97499847
         369	5	123	4	0.0	112.47299957	100.38600159	119.99700165
         370	5	124	1	0.0	116.69000244	98.45700073	120.7539978
         371	5	124	3	0.0	117.77500153	100.06999969	119.36199951
         372	5	124	4	0.0	117.35500336	97.18699646	120.23400116
         373	5	125	1	0.0	119.18800354	101.24199677	121.48799896
         374	5	125	3	0.0	120.72299957	100.7519989	123.26399994
         375	5	125	4	0.0	118.73899841	102.48600006	122.24500275
         376	5	126	1	0.0	122.60800171	99.59300232	121.61599731
         377	5	126	3	0.0	124.63999939	100.25800323	122.65899658
         378	5	126	4	0.0	123.18399811	98.70200348	120.51399994
         379	5	127	1	0.0	124.40699768	102.92099762	122.02999878
         380	5	127	3	0.0	122.64099884	104.00299835	123.22299957
         381	5	127	5	0.0	124.73977651	102.17675273	123.33650473
         382	5	128	1	0.0	124.11699677	106.24700165	123.81800079
         383	5	128	3	0.0	123.27999878	107.1269989	121.73699951
         384	5	128	4	0.0	125.28299713	107.11799622	124.27899933
         385	5	129	1	0.0	121.27100372	108.62200165	122.98000336
         386	5	129	3	0.0	121.31300354	110.18800354	124.79100037
         387	5	129	4	0.0	119.82099915	108.15299988	123.15899658
         388	5	130	1	0.0	122.03500366	112.32499695	123.20200348
         389	5	130	3	0.0	123.08100128	113.09200287	125.20600128
         390	5	130	5	0.0	122.96647881	112.58577163	122.00369191
         391	5	131	1	0.0	125.54799652	111.97399902	124.61399841
         392	5	131	3	0.0	126.58899689	113.19799805	122.8259964
         393	5	131	4	0.0	126.21600342	110.60399628	124.72699738
         394	5	132	1	0.0	128.38800049	114.49900055	124.53800201
         395	5	132	3	0.0	129.875	113.63999939	126.20400238
         396	5	132	4	0.0	128.16400146	115.89099884	125.1210022
         397	5	133	1	0.0	132.02099609	113.41600037	124.44200134
         398	5	133	3	0.0	134.25900269	114.21600342	124.37200165
         399	5	133	4	0.0	132.32800293	112.06500244	123.77899933
         400	5	134	1	0.0	133.64900208	116.54799652	123.01100159
         401	5	134	3	0.0	133.13800049	117.8030014	124.97599792
         402	5	134	5	0.0	134.59424099	116.08431853	124.13489042
         403	5	135	1	0.0	133.22200012	120.26599884	123.67900085
         404	5	135	3	0.0	131.85800171	120.94400024	121.83399963
         405	5	135	4	0.0	134.46800232	121.13700104	123.51200104
         406	5	136	1	0.0	130.04899597	122.35099792	123.45800018
         407	5	136	3	0.0	130.13600159	123.85600281	125.31800079
         408	5	136	4	0.0	128.70199585	121.71900177	123.83699799
         409	5	137	1	0.0	130.56100464	126.11799622	123.71399689
         410	5	137	3	0.0	129.272995	126.95899963	121.8809967
         411	5	137	4	0.0	131.93400574	126.69799805	123.33200073
         412	5	138	1	0.0	127.625	128.48100281	123.45700073
         413	5	138	3	0.0	127.53700256	130.35099792	121.97200012
         414	5	138	5	0.0	127.77157045	127.85179605	122.05906799
         415	5	139	1	0.0	129.67700195	131.65400696	123.15599823
         416	5	139	3	0.0	131.55200195	131.30499268	124.59700012
         417	5	139	4	0.0	128.86999512	132.72000122	123.89600372
         418	5	140	1	0.0	133.3769989	132.44400024	122.85700226
         419	5	140	3	0.0	133.79299927	133.93899536	121.04000092
         420	5	140	4	0.0	134.09100342	131.24200439	122.24099731
         421	5	141	1	0.0	134.91700745	135.92399597	122.6740036
         422	5	141	3	0.0	136.62399292	135.87600708	124.35099792
         423	5	141	4	0.0	134.03300476	137.06599426	123.20800018
         424	5	142	1	0.0	138.625	136.70300293	122.6309967
         425	5	142	3	0.0	138.727005	138.3710022	120.91400146
         426	5	142	5	0.0	138.16431044	137.4734418	123.88231164
         427	5	143	1	0.0	140.48599243	139.95899963	122.30400085
         428	5	143	3	0.0	142.21400452	139.77099609	123.95500183
         429	5	143	5	0.0	141.16880274	139.28424621	121.09980905
         430	5	144	1	0.0	143.91099548	141.53500366	122.58899689
         431	5	144	3	0.0	144.875	143.72599792	122.93399811
         432	5	144	4	0.0	144.94299316	141.00500488	121.56300354
         433	5	145	1	0.0	142.33900452	145.02200317	122.79299927
         434	5	145	3	0.0	143.81700134	146.87600708	123.18499756
         435	5	145	4	0.0	140.90600586	145.24899292	123.30699921

Bond Coeffs

           1	200.0	3.77
           2	200.0	2.41
           3	200.0	2.50
           4	200.0	1.54
           5	200.0	1.54
Bonds

           1	2	1	2
           2	4	1	3
           3	1	1	4
           4	3	2	4
           5	2	4	5
           6	4	4	6
           7	1	4	7
           8	3	5	7
           9	2	7	8
          10	4	7	9
          11	1	7	10
          12	3	8	10
          13	2	10	11
          14	4	10	12
          15	1	10	13
          16	3	11	13
          17	2	13	14
          18	4	13	15
          19	1	13	16
          20	3	14	16
          21	2	16	17
          22	4	16	18
          23	1	16	19
          24	3	17	19
          25	2	19	20
          26	4	19	21
          27	1	19	22
          28	3	20	22
          29	2	22	23
          30	4	22	24
          31	1	22	25
          32	3	23	25
          33	2	25	26
          34	4	25	27
          35	1	25	28
          36	3	26	28
          37	2	28	29
          38	4	28	30
          39	1	28	31
          40	3	29	31
          41	2	31	32
          42	5	31	33
          43	1	31	34
          44	3	32	34
          45	2	34	35
          46	4	34	36
          47	1	34	37
          48	3	35	37
          49	2	37	38
          50	4	37	39
          51	1	37	40
          52	3	38	40
          53	2	40	41
          54	5	40	42
          55	1	40	43
          56	3	41	43
          57	2	43	44
          58	4	43	45
          59	1	43	46
          60	3	44	46
          61	2	46	47
          62	4	46	48
          63	1	46	49
          64	3	47	49
          65	2	49	50
          66	4	49	51
          67	1	49	52
          68	3	50	52
          69	2	52	53
          70	5	52	54
          71	1	52	55
          72	3	53	55
          73	2	55	56
          74	4	55	57
          75	1	55	58
          76	3	56	58
          77	2	58	59
          78	4	58	60
          79	1	58	61
          80	3	59	61
          81	2	61	62
          82	4	61	63
          83	1	61	64
          84	3	62	64
          85	2	64	65
          86	5	64	66
          87	1	64	67
          88	3	65	67
          89	2	67	68
          90	4	67	69
          91	1	67	70
          92	3	68	70
          93	2	70	71
          94	4	70	72
          95	1	70	73
          96	3	71	73
          97	2	73	74
          98	4	73	75
          99	1	73	76
         100	3	74	76
         101	2	76	77
         102	5	76	78
         103	1	76	79
         104	3	77	79
         105	2	79	80
         106	5	79	81