ITEM: TIMESTEP
0
ITEM: NUMBER OF ATOMS
435
ITEM: BOX BOUNDS ss ss ss
9.8335991449999995e+01 1.4498300115999999e+02
8.4034988949999999e+01 1.4963700811999999e+02
9.7869995660000001e+01 1.2624401038000001e+02
ITEM: ATOMS id type xs ys zs
1 1 0.180719 0.0226977 0.23377
2 3 0.151007 0.0473463 0.272609
3 4 0.185414 0.0114785 0.280679
4 1 0.111304 0.049206 0.19747
5 3 0.109418 0.0813087 0.239762
6 4 0.0891807 0.0414775 0.233136
7 1 0.139645 0.102116 0.16783
8 3 0.149913 0.121109 0.239022
9 4 0.112033 0.114737 0.165151
10 1 0.205973 0.106613 0.244978
11 3 0.233498 0.119387 0.179848
12 4 0.221579 0.088092 0.265349
13 1 0.257251 0.151367 0.232008
14 3 0.274466 0.157282 0.310355
15 4 0.240744 0.171016 0.220977
16 1 0.330782 0.163029 0.282724
17 3 0.354257 0.178486 0.216607
18 4 0.349047 0.144477 0.295799
19 1 0.378074 0.210085 0.271481
20 3 0.40352 0.209353 0.344787
21 4 0.363024 0.230908 0.274794
22 1 0.457457 0.208988 0.301896
23 3 0.47673 0.235237 0.252696
24 4 0.474736 0.190878 0.28371
25 1 0.503913 0.255511 0.327553
26 3 0.53772 0.2508 0.390252
27 4 0.491329 0.273605 0.354092
28 1 0.580745 0.236426 0.332382
29 3 0.622398 0.250038 0.369176
30 4 0.595215 0.223865 0.293684
31 1 0.610993 0.289946 0.346726
32 3 0.570733 0.303344 0.388595
33 5 0.619845 0.279296 0.392854
34 1 0.596716 0.339898 0.409354
35 3 0.576822 0.351697 0.335906
36 4 0.619418 0.355111 0.425566
37 1 0.530388 0.370934 0.379467
38 3 0.527408 0.394805 0.443117
39 4 0.500611 0.361346 0.385741
40 1 0.537655 0.428341 0.386939
41 3 0.558021 0.441846 0.457531
42 5 0.556889 0.433863 0.344714
43 1 0.613309 0.429133 0.436879
44 3 0.63256 0.449392 0.373793
45 4 0.630844 0.409545 0.441038
46 1 0.667674 0.472257 0.434059
47 3 0.701374 0.461891 0.492916
48 4 0.659507 0.492988 0.454465
49 1 0.747701 0.462105 0.430923
50 3 0.793427 0.47808 0.428491
51 4 0.757519 0.442151 0.407732
52 1 0.774841 0.512286 0.380242
53 3 0.760842 0.530502 0.44932
54 5 0.79606 0.506933 0.419937
55 1 0.756726 0.567894 0.403397
56 3 0.726092 0.575729 0.338232
57 4 0.781144 0.583229 0.397477
58 1 0.684095 0.594006 0.395221
59 3 0.682252 0.617024 0.460633
60 4 0.656934 0.582116 0.408613
61 1 0.685875 0.651947 0.403891
62 3 0.656462 0.662388 0.339148
63 4 0.713722 0.663074 0.390428
64 1 0.617618 0.682662 0.394445
65 3 0.61125 0.710771 0.341933
66 5 0.622342 0.673329 0.345254
67 1 0.653654 0.734246 0.38359
68 3 0.694386 0.732249 0.434517
69 4 0.633867 0.749032 0.409565
70 1 0.730572 0.752568 0.373123
71 3 0.735867 0.775845 0.30898
72 4 0.748708 0.735572 0.351589
73 1 0.754947 0.807933 0.366392
74 3 0.791369 0.810204 0.425566
75 4 0.733338 0.82371 0.385071
76 1 0.832036 0.826103 0.364982
77 3 0.830236 0.851468 0.304257
78 5 0.82029 0.837041 0.408951
79 1 0.863828 0.878601 0.353175
80 3 0.901023 0.878799 0.411433
81 5 0.880055 0.869502 0.310849
82 1 0.932943 0.908387 0.363185
83 3 0.948164 0.943233 0.375167
84 4 0.956246 0.902076 0.32713
85 1 0.891011 0.958492 0.369951
86 3 0.91798 0.989131 0.383626
87 4 0.859905 0.959498 0.387996
88 1 0.149442 0.0332308 0.402023
89 3 0.121037 0.0586417 0.440826
90 4 0.153536 0.0218897 0.448932
91 1 0.0814845 0.0615531 0.365652
92 3 0.0812701 0.0936863 0.407979
93 4 0.0589536 0.0544039 0.401318
94 1 0.112569 0.11367 0.336082
95 3 0.123824 0.132389 0.407274
96 4 0.0856434 0.127024 0.333369
97 1 0.179069 0.116414 0.41323
98 3 0.207259 0.128457 0.348171
99 4 0.193689 0.0974972 0.433636
100 1 0.232663 0.159782 0.400331
101 3 0.250155 0.165239 0.478678
102 4 0.217185 0.179873 0.3893
103 1 0.306729 0.169507 0.451082
104 3 0.330997 0.184324 0.384965
105 4 0.324008 0.150468 0.464157
106 1 0.356443 0.215283 0.439874
107 3 0.381825 0.213866 0.513181
108 4 0.342487 0.236487 0.443187
109 1 0.435719 0.212082 0.470325
110 3 0.456342 0.237798 0.421195
111 4 0.452033 0.193531 0.452174
112 1 0.484576 0.25734 0.496053
113 3 0.518104 0.251746 0.558786
114 4 0.472914 0.275754 0.522591
115 1 0.560336 0.236228 0.500916
116 3 0.602675 0.248742 0.537746
117 4 0.574164 0.223316 0.462219
118 1 0.593372 0.288924 0.515295
119 3 0.553819 0.303375 0.55713
120 5 0.601638 0.278055 0.561443
121 1 0.581688 0.339212 0.577923
122 3 0.562437 0.351529 0.504441
123 4 0.605162 0.353816 0.59417
124 1 0.517032 0.371986 0.548002
125 3 0.515296 0.395903 0.611651
126 4 0.486762 0.36319 0.55424
127 1 0.527301 0.429164 0.555473
128 3 0.548331 0.442121 0.626101
129 5 0.546838 0.434157 0.513272
130 1 0.602911 0.427944 0.605484
131 3 0.623234 0.447685 0.542398
132 4 0.619418 0.407914 0.609642
133 1 0.659507 0.46962 0.6027
134 3 0.692628 0.458355 0.661556
135 4 0.652432 0.490534 0.62307
136 1 0.738954 0.457349 0.599598
137 3 0.785474 0.472104 0.597202
138 4 0.747744 0.437151 0.576408
139 1 0.76871 0.506768 0.548953
140 3 0.755654 0.52535 0.61803
141 5 0.789607 0.500856 0.588686
142 1 0.753489 0.562833 0.572108
143 3 0.723305 0.571461 0.506908
144 4 0.778721 0.577498 0.566187
145 1 0.682273 0.590836 0.563896
146 3 0.68163 0.613899 0.629308
147 4 0.654512 0.579678 0.577254
148 1 0.687075 0.648684 0.572566
149 3 0.658263 0.659919 0.507824
150 4 0.715502 0.659081 0.559139
151 1 0.62049 0.681199 0.563086
152 3 0.615602 0.709445 0.510573
153 5 0.624715 0.671745 0.513894
154 1 0.659206 0.731792 0.552266
155 3 0.699788 0.728712 0.603228
156 4 0.640191 0.747081 0.578205
157 1 0.737025 0.748072 0.541869
158 3 0.743542 0.771196 0.477726
159 4 0.754261 0.730603 0.520335
160 1 0.764272 0.80275 0.535138
161 3 0.80078 0.804061 0.594347
162 4 0.743499 0.819091 0.553817
163 1 0.842262 0.818877 0.533763
164 3 0.84179 0.844258 0.473074
165 5 0.831095 0.830111 0.577742
166 1 0.876755 0.870492 0.521992
167 3 0.913928 0.869714 0.58032
168 5 0.892504 0.860958 0.479689
169 1 0.947392 0.898433 0.532072
170 3 0.964414 0.932852 0.544054
171 4 0.970373 0.891512 0.496017
172 1 0.908119 0.94962 0.538803
173 3 0.936652 0.979528 0.552513
174 4 0.877077 0.951434 0.556848
175 1 0.214741 0.0116614 0.0699232
176 3 0.183678 0.0354107 0.108867
177 4 0.220186 0.000609859 0.116832
178 1 0.143739 0.0360357 0.0339397
179 3 0.140052 0.0680926 0.0761613
180 4 0.122173 0.027667 0.0697823
181 1 0.168864 0.089723 0.00398273
182 3 0.178168 0.109067 0.0750336
183 4 0.140524 0.101521 0.00141002
184 1 0.235021 0.0962472 0.0806724
185 3 0.261625 0.109799 0.0153663
186 4 0.251763 0.0782295 0.101043
187 1 0.283598 0.142496 0.06728
188 3 0.30062 0.148974 0.145485
189 4 0.265912 0.161642 0.0562841
190 1 0.356486 0.156383 0.117467
191 3 0.378867 0.17248 0.0511737
192 4 0.375844 0.138395 0.130507
193 1 0.400926 0.204811 0.105766
194 3 0.426544 0.204887 0.178931
195 4 0.384655 0.225161 0.109149
196 1 0.480374 0.206107 0.135723
197 3 0.497953 0.232859 0.0863115
198 4 0.49866 0.188516 0.117467
199 1 0.524085 0.253986 0.160922
200 3 0.5583 0.250343 0.223444
201 4 0.510494 0.271714 0.187496
202 1 0.601989 0.237218 0.165363
203 3 0.642892 0.252096 0.20184
204 4 0.617103 0.225085 0.126595
205 1 0.629087 0.291607 0.179319
206 3 0.588141 0.303817 0.2214
207 5 0.638646 0.281262 0.225435
208 1 0.612001 0.341133 0.241876
209 3 0.591271 0.352276 0.168499
210 4 0.633824 0.357017 0.257912
211 1 0.543808 0.370141 0.212307
212 3 0.539585 0.393936 0.275886
213 4 0.514653 0.359669 0.218792
214 1 0.54771 0.427716 0.219532
215 3 0.567411 0.441877 0.289984
216 5 0.566524 0.433768 0.177185
217 1 0.623341 0.43081 0.269014
218 3 0.641263 0.451572 0.205752
219 4 0.642035 0.411756 0.273137
220 1 0.675134 0.475519 0.265736
221 3 0.709542 0.466205 0.324417
222 4 0.665788 0.495991 0.286107
223 1 0.755654 0.46776 0.262141
224 3 0.800394 0.485092 0.259357
225 4 0.766609 0.448096 0.238951
226 1 0.779686 0.518673 0.211144
227 3 0.764787 0.536508 0.280221
228 5 0.801284 0.51399 0.250739
229 1 0.758355 0.573717 0.234193
230 3 0.727142 0.580577 0.169204
231 4 0.781851 0.589753 0.228061
232 1 0.684224 0.597619 0.226404
233 3 0.68118 0.620606 0.291746
234 4 0.657813 0.584952 0.239973
235 1 0.682595 0.655559 0.234863
236 3 0.652453 0.665086 0.170297
237 4 0.709735 0.66751 0.221189
238 1 0.61258 0.684217 0.225735
239 3 0.604433 0.712067 0.173187
240 5 0.617751 0.675001 0.176547
241 1 0.645508 0.736822 0.214492
242 3 0.686432 0.736075 0.265172
243 4 0.624906 0.751014 0.240537
244 1 0.721225 0.757431 0.203496
245 3 0.724998 0.780784 0.139247
246 4 0.740305 0.740968 0.181892
247 1 0.742299 0.813451 0.196412
248 3 0.778678 0.816865 0.255375
249 4 0.71981 0.828587 0.215197
250 1 0.818252 0.833923 0.194474
251 3 0.8148 0.859166 0.133679
252 5 0.805977 0.844529 0.238487
253 1 0.846871 0.88732 0.182315
254 3 0.884151 0.888662 0.240361
255 5 0.863509 0.878689 0.139895
256 1 0.914185 0.919133 0.191795
257 3 0.927348 0.954437 0.203567
258 4 0.937767 0.913524 0.1556
259 1 0.869338 0.967958 0.198632
260 3 0.894505 0.99939 0.21206
261 4 0.838253 0.96805 0.216889
262 1 0.118079 0.0445415 0.569782
263 3 0.0910457 0.0706992 0.608585
264 4 0.121551 0.0330937 0.616691
265 1 0.0517077 0.074693 0.533375
266 3 0.0532083 0.106796 0.575738
267 4 0.0287909 0.0681689 0.569007
268 1 0.0856006 0.125926 0.503877
269 3 0.09782 0.14431 0.575104
270 4 0.0594038 0.140011 0.501128
271 1 0.152164 0.126856 0.581095
272 3 0.180998 0.138121 0.516071
273 4 0.165734 0.107543 0.601466
274 1 0.208052 0.16873 0.568267
275 3 0.225803 0.173699 0.646648
276 4 0.193668 0.189217 0.557235
277 1 0.282591 0.176412 0.619088
278 3 0.307651 0.190574 0.553041
279 4 0.298819 0.156931 0.632198
280 1 0.334727 0.220801 0.607986
281 3 0.35998 0.218698 0.681328
282 4 0.321929 0.242386 0.611334
283 1 0.413767 0.215451 0.638507
284 3 0.435784 0.240587 0.589378
285 4 0.429074 0.196473 0.620321
286 1 0.465003 0.259337 0.664305
287 3 0.498189 0.252828 0.727074
288 4 0.454349 0.278056 0.690844
289 1 0.539585 0.236182 0.669204
290 3 0.582546 0.247523 0.706104
291 4 0.552704 0.222905 0.630542
292 1 0.575428 0.287933 0.683689
293 3 0.536648 0.303436 0.725488
294 5 0.583067 0.276831 0.729832
295 1 0.566446 0.338496 0.746352
296 3 0.547902 0.351346 0.672869
297 4 0.590692 0.352444 0.762599
298 1 0.503591 0.373007 0.716395
299 3 0.503141 0.396954 0.780045
300 4 0.472892 0.365035 0.722598
301 1 0.516946 0.429865 0.723937
302 3 0.538641 0.442227 0.794565
303 5 0.53675 0.434333 0.681758
304 1 0.592428 0.426588 0.773983
305 3 0.613823 0.445764 0.710932
306 4 0.607821 0.406116 0.778142
307 1 0.65121 0.466678 0.771304
308 3 0.683688 0.454514 0.830196
309 4 0.645272 0.487775 0.79171
310 1 0.729929 0.452258 0.768273
311 3 0.77722 0.465733 0.765912
312 4 0.737625 0.431831 0.745083
313 1 0.762343 0.500838 0.717699
314 3 0.750295 0.519756 0.786776
315 5 0.782901 0.494351 0.757429
316 1 0.750166 0.55727 0.740889
317 3 0.720475 0.566736 0.675689
318 4 0.776149 0.571248 0.735004
319 1 0.680515 0.587192 0.732642
320 3 0.681073 0.610241 0.798054
321 4 0.652154 0.576812 0.745964
322 1 0.688426 0.644874 0.741383
323 3 0.660235 0.656885 0.676605
324 4 0.717388 0.654492 0.727955
325 1 0.623641 0.679171 0.731832
326 3 0.620297 0.707555 0.679354
327 5 0.627416 0.669633 0.682629
328 1 0.665059 0.728682 0.721118
329 3 0.705426 0.72449 0.77208
330 4 0.646858 0.744474 0.747057
331 1 0.743692 0.742828 0.710791
332 3 0.751474 0.765769 0.646648
333 4 0.759985 0.724902 0.689258
334 1 0.773876 0.796713 0.70413
335 3 0.810384 0.797034 0.763375
336 4 0.753982 0.813618 0.722809
337 1 0.852659 0.810707 0.702862
338 3 0.853581 0.836102 0.642172
339 5 0.842087 0.822222 0.746849
340 1 0.889939 0.861361 0.691161
341 3 0.927005 0.859547 0.749489
342 5 0.90518 0.851417 0.64886
343 1 0.962013 0.887351 0.701311
344 3 0.980878 0.921283 0.713364
345 4 0.984608 0.879821 0.665292
346 1 0.925504 0.93956 0.708078
347 3 0.955646 0.968675 0.721823
348 4 0.894591 0.942227 0.726087
349 1 0.0888377 0.0570563 0.737894
350 3 0.0632626 0.0838696 0.776943
351 4 0.0917531 0.0454713 0.784697
352 1 0.0240532 0.0890066 0.70191
353 3 0.0273117 0.121003 0.744449
354 4 0.000857676 0.0830617 0.737612
355 1 0.0606043 0.13934 0.672587
356 3 0.0738741 0.157297 0.74385
357 4 0.0351578 0.154111 0.670014
358 1 0.127254 0.13838 0.749559
359 3 0.156602 0.148944 0.684464
360 4 0.139838 0.118716 0.769789
361 1 0.185328 0.17876 0.736766
362 3 0.203422 0.18315 0.815112
363 4 0.172037 0.199628 0.725911
364 1 0.260274 0.184369 0.787375
365 3 0.285999 0.197921 0.721294
366 4 0.275473 0.164446 0.800275
367 1 0.314726 0.227356 0.776309
368 3 0.339936 0.224475 0.849545
369 4 0.303064 0.249246 0.779833
370 1 0.393466 0.219841 0.806513
371 3 0.416726 0.244429 0.757454
372 4 0.407722 0.200482 0.788186
373 1 0.447017 0.262294 0.832381
374 3 0.479924 0.254825 0.894974
375 4 0.437392 0.281257 0.859061
376 1 0.520334 0.237158 0.836893
377 3 0.563895 0.247294 0.873652
378 4 0.532682 0.223576 0.798054
379 1 0.5589 0.287888 0.851483
380 3 0.521041 0.304381 0.893529
381 5 0.566034 0.276543 0.897529
382 1 0.552683 0.338587 0.914499
383 3 0.53474 0.352002 0.841157
384 4 0.577679 0.351864 0.930746
385 1 0.491672 0.37479 0.884965
386 3 0.492572 0.398662 0.948791
387 4 0.460587 0.367641 0.891273
388 1 0.50805 0.431237 0.892789
389 3 0.530474 0.442929 0.963417
390 5 0.528019 0.435212 0.850556
391 1 0.58336 0.425886 0.942553
392 3 0.605677 0.444544 0.879537
393 4 0.597681 0.405003 0.946535
394 1 0.644243 0.464376 0.939874
395 3 0.676121 0.451282 0.99859
396 4 0.639441 0.485595 0.960421
397 1 0.722126 0.447867 0.936491
398 3 0.770103 0.460062 0.934024
399 4 0.728707 0.427274 0.913124
400 1 0.757026 0.49561 0.886057
401 3 0.746072 0.51474 0.955311
402 5 0.77729 0.488542 0.925667
403 1 0.747872 0.552285 0.9096
404 3 0.718631 0.56262 0.844576
405 4 0.774584 0.565562 0.903714
406 1 0.679851 0.584068 0.901811
407 3 0.681716 0.607009 0.967364
408 4 0.650974 0.574434 0.915168
409 1 0.690827 0.64149 0.910833
410 3 0.663215 0.654309 0.846232
411 4 0.720261 0.650331 0.897371
412 1 0.627886 0.67751 0.901776
413 3 0.626 0.706015 0.849439
414 5 0.631028 0.667919 0.852508
415 1 0.671876 0.725877 0.891168
416 3 0.712072 0.720557 0.941954
417 4 0.654576 0.742127 0.917248
418 1 0.751195 0.73792 0.88063
419 3 0.760113 0.760708 0.816592
420 4 0.766502 0.719597 0.85892
421 1 0.784209 0.790967 0.87418
422 3 0.820803 0.790235 0.933284
423 4 0.765258 0.808375 0.893
424 1 0.8637 0.802841 0.872665
425 3 0.865886 0.828267 0.812152
426 5 0.853824 0.814585 0.916765
427 1 0.903595 0.852474 0.86114
428 3 0.940639 0.849608 0.919327
429 5 0.918233 0.842188 0.8187
430 1 0.977019 0.876498 0.871184
431 3 0.997685 0.909896 0.883344
432 4 0.999142 0.868419 0.835025
433 1 0.943319 0.929651 0.878374
434 3 0.975004 0.957913 0.89219
435 4 0.912599 0.933112 0.896489
