LAMMPS protain data file

         108  atoms
         132  bonds
           0  angles
           0  dihedrals
           0  impropers

           5  atom types
           5  bond types
           0  angle types
           0  dihedral types
           0  improper types

-200.0	200.0	xlo xhi
-200.0	200.0	ylo yhi
-200.0	200.0	zlo zhi

Masses

           1	27.0
           2	14.0
           3	28.0
           4	60.0
           5	60.0

Atoms

           1	1	1	1	0.0	4.84399986	5.32200003	-7.1789999
           2	1	1	3	0.0	4.15199995	7.32700014	-6.12300014
           3	1	1	5	0.0	3.40304286	4.98168748	-7.60259202
           4	1	2	1	0.0	3.43600011	6.09000015	-3.71399999
           5	1	2	3	0.0	4.32700014	4.22700024	-2.48799992
           6	1	2	4	0.0	1.926	5.97100019	-3.76300001
           7	1	3	1	0.0	4.51900005	5.6960001	-0.038
           8	1	3	3	0.0	3.39499998	7.48000002	1.10800004
           9	1	3	4	0.0	5.98799992	6.11499977	0.154
          10	1	4	1	0.0	2.82500005	5.94999981	3.42600012
          11	1	4	3	0.0	3.83800006	4.0999999	4.61100006
          12	1	4	4	0.0	1.347	5.51499987	3.44400001
          13	1	5	1	0.0	4.67500019	5.57299995	6.75299978
          14	1	5	3	0.0	3.77900004	7.37599993	8.06499958
          15	1	5	5	0.0	3.64789478	4.42688529	6.80845823
          16	1	6	1	0.0	3.22300005	5.67799997	10.25399971
          17	1	6	3	0.0	4.39300013	3.93400002	11.38199997
          18	1	6	4	0.0	1.75800002	5.26499987	10.13199997
          19	2	7	1	0.0	13.91899967	-0.54500002	7.1789999
          20	2	7	3	0.0	13.22700024	-2.54999995	6.12300014
          21	2	7	5	0.0	12.47796091	-0.20488984	7.60247641
          22	2	8	1	0.0	12.51099968	-1.31299996	3.71399999
          23	2	8	3	0.0	13.40200043	0.55000001	2.48799992
          24	2	8	4	0.0	11.0010004	-1.19500005	3.76300001
          25	2	9	1	0.0	13.59399986	-0.91900003	0.038
          26	2	9	3	0.0	12.47000027	-2.704	-1.10800004
          27	2	9	4	0.0	15.06299973	-1.33800006	-0.154
          28	2	10	1	0.0	11.89999962	-1.17400002	-3.42600012
          29	2	10	3	0.0	12.91300011	0.67699999	-4.61100006
          30	2	10	4	0.0	10.42199993	-0.73799998	-3.44400001
          31	2	11	1	0.0	13.75	-0.796	-6.75299978
          32	2	11	3	0.0	12.85400009	-2.59899998	-8.06499958
          33	2	11	5	0.0	12.72235896	0.34965707	-6.80798867
          34	2	12	1	0.0	12.29800034	-0.90100002	-10.25399971
          35	2	12	3	0.0	13.46800041	0.84299999	-11.38199997
          36	2	12	4	0.0	10.83300018	-0.48800001	-10.13199997
          37	3	13	1	0.0	13.91899967	9.00800037	7.1789999
          38	3	13	3	0.0	13.22700024	7.00299978	6.12300014
          39	3	13	5	0.0	12.47804246	9.34831233	7.6025918
          40	3	14	1	0.0	12.51099968	8.23999977	3.71399999
          41	3	14	3	0.0	13.40200043	10.10299969	2.48799992
          42	3	14	4	0.0	11.0010004	8.3579998	3.76300001
          43	3	15	1	0.0	13.59399986	8.63399982	0.038
          44	3	15	3	0.0	12.47000027	6.84899998	-1.10800004
          45	3	15	4	0.0	15.06299973	8.21500015	-0.154
          46	3	16	1	0.0	11.89999962	8.38000011	-3.42600012
          47	3	16	3	0.0	12.91300011	10.22999954	-4.61100006
          48	3	16	4	0.0	10.42199993	8.81499958	-3.44400001
          49	3	17	1	0.0	13.75	8.75699997	-6.75299978
          50	3	17	3	0.0	12.85400009	6.954	-8.06499958
          51	3	17	5	0.0	12.72289384	9.90311396	-6.80845845
          52	3	18	1	0.0	12.29800034	8.65200043	-10.25399971
          53	3	18	3	0.0	13.46800041	10.39599991	-11.38199997
          54	3	18	4	0.0	10.83300018	9.06499958	-10.13199997
          55	4	19	1	0.0	4.32499981	0.70599997	9.70100021
          56	4	19	3	0.0	4.8920002	2.5999999	8.36800003
          57	4	19	5	0.0	5.5973563	-0.13067485	9.47146977
          58	4	20	1	0.0	4.61000013	1.24100006	5.94500017
          59	4	20	3	0.0	3.39299989	-0.60699999	5.01800013
          60	4	20	4	0.0	6.1170001	1.153	5.56400013
          61	4	21	1	0.0	2.80699992	0.78600001	2.65700006
          62	4	21	3	0.0	3.41000009	2.78299999	1.46200001
          63	4	21	4	0.0	1.29100001	1.05400002	2.75500011
          64	4	22	1	0.0	4.14099979	1.398	-0.85000002
          65	4	22	3	0.0	3.45900011	-0.60799998	-2.01699996
          66	4	22	4	0.0	5.6420002	1.68599999	-0.75700003
          67	4	23	1	0.0	3.69499993	0.58600003	-4.51599979
          68	4	23	3	0.0	4.41900015	2.57999992	-5.58099985
          69	4	23	5	0.0	5.04455137	-0.14420419	-4.38518419
          70	4	24	1	0.0	5.05600023	1.30200005	-7.97800016
          71	4	24	3	0.0	4.19299984	-0.579	-9.1619997
          72	4	24	4	0.0	6.58599997	1.22800004	-8.02999973
          73	5	25	1	0.0	4.32499981	10.25899982	9.70100021
          74	5	25	3	0.0	4.8920002	12.15299988	8.36800003
          75	5	25	5	0.0	5.5973566	9.42232549	9.47146971
          76	5	26	1	0.0	4.61000013	10.79399967	5.94500017
          77	5	26	3	0.0	3.39299989	8.9460001	5.01800013
          78	5	26	4	0.0	6.1170001	10.70600033	5.56400013
          79	5	27	1	0.0	2.80699992	10.33899975	2.65700006
          80	5	27	3	0.0	3.41000009	12.33600044	1.46200001
          81	5	27	4	0.0	1.29100001	10.60700035	2.75500011
          82	5	28	1	0.0	4.14099979	10.95100021	-0.85000002
          83	5	28	3	0.0	3.45900011	8.94499969	-2.01699996
          84	5	28	4	0.0	5.6420002	11.23900032	-0.75700003
          85	5	29	1	0.0	3.69499993	10.13899994	-4.51599979
          86	5	29	3	0.0	4.41900015	12.13300037	-5.58099985
          87	5	29	5	0.0	5.04455136	9.40879568	-4.38518435
          88	5	30	1	0.0	5.05600023	10.85499954	-7.97800016
          89	5	30	3	0.0	4.19299984	8.97399998	-9.1619997
          90	5	30	4	0.0	6.58599997	10.78100014	-8.02999973
          91	6	31	1	0.0	13.39999962	4.0710001	-9.70100021
          92	6	31	3	0.0	13.96700001	2.17700005	-8.36800003
          93	6	31	5	0.0	14.67235596	4.90767508	-9.47146956
          94	6	32	1	0.0	13.68500042	3.53600001	-5.94500017
          95	6	32	3	0.0	12.46800041	5.38399982	-5.01800013
          96	6	32	4	0.0	15.19200039	3.62400007	-5.56400013
          97	6	33	1	0.0	11.88199997	3.99099994	-2.65700006
          98	6	33	3	0.0	12.48499966	1.99399996	-1.46200001
          99	6	33	4	0.0	10.36600018	3.72300005	-2.75500011
         100	6	34	1	0.0	13.2159996	3.37899995	0.85000002
         101	6	34	3	0.0	12.5340004	5.38500023	2.01699996
         102	6	34	4	0.0	14.71700001	3.09100008	0.75700003
         103	6	35	1	0.0	12.77000046	4.19099998	4.51599979
         104	6	35	3	0.0	13.49400043	2.19700003	5.58099985
         105	6	35	5	0.0	14.11955226	4.92120355	4.38518437
         106	6	36	1	0.0	14.13099957	3.4749999	7.97800016
         107	6	36	3	0.0	13.26799965	5.35599995	9.1619997
         108	6	36	4	0.0	15.66100025	3.54900002	8.02999973

Bond Coeffs

           1	200.0	3.77
           2	200.0	2.41
           3	200.0	2.50
           4	200.0	1.54
           5	200.0	1.54
Bonds

           1	2	1	2
           2	5	1	3
           3	1	1	4
           4	3	2	4
           5	2	4	5
           6	4	4	6
           7	1	4	7
           8	3	5	7
           9	2	7	8
          10	4	7	9
          11	1	7	10
          12	3	8	10
          13	2	10	11
          14	4	10	12
          15	1	10	13
          16	3	11	13
          17	2	13	14
          18	5	13	15
          19	1	13	16
          20	3	14	16
          21	2	16	17
          22	4	16	18
          23	2	19	20
          24	5	19	21
          25	1	19	22
          26	3	20	22
          27	2	22	23
          28	4	22	24
          29	1	22	25
          30	3	23	25
          31	2	25	26
          32	4	25	27
          33	1	25	28
          34	3	26	28
          35	2	28	29
          36	4	28	30
          37	1	28	31
          38	3	29	31
          39	2	31	32
          40	5	31	33
          41	1	31	34
          42	3	32	34
          43	2	34	35
          44	4	34	36
          45	2	37	38
          46	5	37	39
          47	1	37	40
          48	3	38	40
          49	2	40	41
          50	4	40	42
          51	1	40	43
          52	3	41	43
          53	2	43	44
          54	4	43	45
          55	1	43	46
          56	3	44	46
          57	2	46	47
          58	4	46	48
          59	1	46	49
          60	3	47	49
          61	2	49	50
          62	5	49	51
          63	1	49	52
          64	3	50	52
          65	2	52	53
          66	4	52	54
          67	2	55	56
          68	5	55	57
          69	1	55	58
          70	3	56	58
          71	2	58	59
          72	4	58	60
          73	1	58	61
          74	3	59	61
          75	2	61	62
          76	4	61	63
          77	1	61	64
          78	3	62	64
          79	2	64	65
          80	4	64	66
          81	1	64	67
          82	3	65	67
          83	2	67	68
          84	5	67	69
          85	1	67	70
          86	3	68	70
          87	2	70	71
          88	4	70	72
          89	2	73	74
          90	5	73	75
          91	1	73	76
          92	3	74	76
          93	2	76	77
          94	4	76	78
          95	1	76	79
          96	3	77	79
          97	2	79	80
          98	4	79	81
          99	1	79	82
         100	3	80	82
         101	2	82	83
         102	4	82	84
         103	1	82	85
         104	3	83	85
         105	2	85	86
         106	5	85	87
         107	1	85	88
         108	3	86	88
         109	2	88	89
         110	4	88	90
         111	2	91	92
         112	5	91	93
         113	1	91	94
         114	3	92	94
         115	2	94	95
         116	4	94	96
         117	1	94	97
         118	3	95	97
         119	2	97	98
         120	4	97	99
         121	1	97	100
         122	3	98	100
         123	2	100	101
         124	4	100	102
         125	1	100	103
         126	3	101	103
         127	2	103	104
         128	5	103	105
         129	1	103	106
         130	3	104	106
         131	2	106	107
         132	4	106	108

