ITEM: TIMESTEP
0
ITEM: NUMBER OF ATOMS
108
ITEM: BOX BOUNDS ss ss ss
1.2509920100000000e+00 1.5701008250000001e+01
-2.7440080000000000e+00 1.2376008440000000e+01
-1.1422007970000001e+01 1.1422007970000001e+01
ITEM: ATOMS id type xs ys zs
1 1 0.248651 0.533466 0.185738
2 3 0.200762 0.666071 0.231965
3 5 0.148931 0.510958 0.167195
4 1 0.151211 0.584259 0.337419
5 3 0.212872 0.461045 0.391087
6 4 0.0467133 0.576389 0.335274
7 1 0.226159 0.558201 0.498337
8 3 0.148374 0.67619 0.548503
9 4 0.32782 0.585913 0.506741
10 1 0.108928 0.575 0.649974
11 3 0.179031 0.452646 0.701847
12 4 0.00664414 0.54623 0.650762
13 1 0.236955 0.550066 0.795614
14 3 0.174948 0.669312 0.853046
15 5 0.165875 0.474265 0.798041
16 1 0.136471 0.557011 0.94887
17 3 0.21744 0.441667 0.998249
18 4 0.035087 0.529696 0.94353
19 1 0.876678 0.145437 0.814262
20 3 0.828789 0.0128312 0.768035
21 5 0.776952 0.167931 0.832799
22 1 0.779238 0.0946433 0.662581
23 3 0.840899 0.217857 0.608913
24 4 0.67474 0.102448 0.664726
25 1 0.854186 0.120701 0.501663
26 3 0.776401 0.00264603 0.451497
27 4 0.955847 0.0929898 0.493259
28 1 0.736955 0.103836 0.350026
29 3 0.807058 0.226257 0.298153
30 4 0.634671 0.132672 0.349238
31 1 0.864982 0.128836 0.204386
32 3 0.802975 0.00959047 0.146954
33 5 0.793865 0.204607 0.201979
34 1 0.764498 0.121892 0.0511297
35 3 0.845467 0.237236 0.00175136
36 4 0.663114 0.149207 0.0564703
37 1 0.876678 0.777248 0.814262
38 3 0.828789 0.644643 0.768035
39 5 0.776958 0.799756 0.832805
40 1 0.779238 0.726455 0.662581
41 3 0.840899 0.849669 0.608913
42 4 0.67474 0.734259 0.664726
43 1 0.854186 0.752513 0.501663
44 3 0.776401 0.634458 0.451497
45 4 0.955847 0.724801 0.493259
46 1 0.736955 0.735714 0.350026
47 3 0.807058 0.858068 0.298153
48 4 0.634671 0.764484 0.349238
49 1 0.864982 0.760648 0.204386
50 3 0.802975 0.641402 0.146954
51 5 0.793902 0.836449 0.201959
52 1 0.764498 0.753703 0.0511297
53 3 0.845467 0.869047 0.00175136
54 4 0.663114 0.781018 0.0564703
55 1 0.212734 0.228175 0.924663
56 3 0.251973 0.353439 0.86631
57 5 0.300786 0.172839 0.914615
58 1 0.232457 0.263558 0.760243
59 3 0.148236 0.141336 0.719664
60 4 0.336748 0.257738 0.743565
61 1 0.107682 0.233466 0.616311
62 3 0.149412 0.365542 0.563999
63 4 0.00276872 0.251191 0.620601
64 1 0.2 0.273942 0.462791
65 3 0.152803 0.14127 0.411706
66 4 0.303876 0.29299 0.466862
67 1 0.169135 0.220238 0.302311
68 3 0.219239 0.352117 0.255691
69 5 0.26253 0.171945 0.308038
70 1 0.263322 0.267593 0.150762
71 3 0.203599 0.143188 0.0989322
72 4 0.369204 0.262699 0.148486
73 1 0.212734 0.859986 0.924663
74 3 0.251973 0.985251 0.86631
75 5 0.300786 0.804651 0.914615
76 1 0.232457 0.89537 0.760243
77 3 0.148236 0.773148 0.719664
78 4 0.336748 0.88955 0.743565
79 1 0.107682 0.865277 0.616311
80 3 0.149412 0.997354 0.563999
81 4 0.00276872 0.883002 0.620601
82 1 0.2 0.905754 0.462791
83 3 0.152803 0.773082 0.411706
84 4 0.303876 0.924801 0.466862
85 1 0.169135 0.85205 0.302311
86 3 0.219239 0.983928 0.255691
87 5 0.26253 0.803756 0.308038
88 1 0.263322 0.899404 0.150762
89 3 0.203599 0.775 0.0989322
90 4 0.369204 0.89451 0.148486
91 1 0.840761 0.450728 0.0753374
92 3 0.88 0.325463 0.13369
93 5 0.928813 0.506063 0.0853851
94 1 0.860484 0.415344 0.239757
95 3 0.776263 0.537566 0.280336
96 4 0.964775 0.421164 0.256435
97 1 0.735709 0.445437 0.383689
98 3 0.777439 0.31336 0.436001
99 4 0.630796 0.427712 0.379399
100 1 0.828027 0.40496 0.537209
101 3 0.78083 0.537632 0.588294
102 4 0.931903 0.385913 0.533138
103 1 0.797162 0.458664 0.697689
104 3 0.847266 0.326786 0.744309
105 5 0.890557 0.506958 0.691962
106 1 0.891349 0.41131 0.849238
107 3 0.831626 0.535714 0.901068
108 4 0.997231 0.416204 0.851514
