LAMMPS protain data file

         108  atoms
         132  bonds
           0  angles
           0  dihedrals
           0  impropers

           5  atom types
           5  bond types
           0  angle types
           0  dihedral types
           0  improper types

-200.0	200.0	xlo xhi
-200.0	200.0	ylo yhi
-200.0	200.0	zlo zhi

Masses

           1	27.0
           2	14.0
           3	28.0
           4	60.0
           5	60.0

Atoms

           1	1	1	1	0.0	-4.75600004	0.95599997	-0.33199999
           2	1	1	3	0.0	-5.6420002	-0.85799998	-1.64600003
           3	1	1	4	0.0	-3.40300012	0.28099999	0.04
           4	1	2	1	0.0	-6.296	0.83999997	-3.84899998
           5	1	2	3	0.0	-5.28700018	2.64700007	-5.079
           6	1	2	4	0.0	-7.69999981	1.47800004	-3.82599998
           7	1	3	1	0.0	-3.86999989	0.95499998	-6.84299994
           8	1	3	3	0.0	-4.30600023	-0.88800001	-8.31000042
           9	1	3	4	0.0	-2.4519999	0.546	-6.39599991
          10	1	4	1	0.0	-4.48899984	0.69599998	-10.63000011
          11	1	4	3	0.0	-3.3900001	2.55699992	-11.70499992
          12	1	4	4	0.0	-5.97599983	0.91000003	-11.07299995
          13	1	5	1	0.0	-2.19000006	0.93199998	-13.70300007
          14	1	5	3	0.0	-3.227	-0.76800001	-15.05799961
          15	1	5	4	0.0	-0.77100003	0.33399999	-13.71899986
          16	1	6	1	0.0	-4.16599989	0.99599999	-16.99900055
          17	1	6	3	0.0	-2.90400004	2.64499998	-18.24300003
          18	1	6	4	0.0	-5.65700006	1.20700002	-16.72400093
          19	2	7	1	0.0	-4.75600004	-3.8829999	-0.33199999
          20	2	7	3	0.0	-5.6420002	-5.69700003	-1.64600003
          21	2	7	4	0.0	-3.40300012	-4.55800009	0.04
          22	2	8	1	0.0	-6.296	-3.99900007	-3.84899998
          23	2	8	3	0.0	-5.28700018	-2.19199991	-5.079
          24	2	8	4	0.0	-7.69999981	-3.36100006	-3.82599998
          25	2	9	1	0.0	-3.86999989	-3.88400006	-6.84299994
          26	2	9	3	0.0	-4.30600023	-5.72700024	-8.31000042
          27	2	9	4	0.0	-2.4519999	-4.29300022	-6.39599991
          28	2	10	1	0.0	-4.48899984	-4.14300013	-10.63000011
          29	2	10	3	0.0	-3.3900001	-2.28200006	-11.70499992
          30	2	10	4	0.0	-5.97599983	-3.9289999	-11.07299995
          31	2	11	1	0.0	-2.19000006	-3.90700006	-13.70300007
          32	2	11	3	0.0	-3.227	-5.60699987	-15.05799961
          33	2	11	4	0.0	-0.77100003	-4.50500011	-13.71899986
          34	2	12	1	0.0	-4.16599989	-3.84299994	-16.99900055
          35	2	12	3	0.0	-2.90400004	-2.19400001	-18.24300003
          36	2	12	4	0.0	-5.65700006	-3.63199997	-16.72400093
          37	3	13	1	0.0	-4.75600004	-8.72200012	-0.33199999
          38	3	13	3	0.0	-5.6420002	-10.53600025	-1.64600003
          39	3	13	4	0.0	-3.40300012	-9.39700031	0.04
          40	3	14	1	0.0	-6.296	-8.8380003	-3.84899998
          41	3	14	3	0.0	-5.28700018	-7.03100014	-5.079
          42	3	14	4	0.0	-7.69999981	-8.19999981	-3.82599998
          43	3	15	1	0.0	-3.86999989	-8.72299957	-6.84299994
          44	3	15	3	0.0	-4.30600023	-10.56599998	-8.31000042
          45	3	15	4	0.0	-2.4519999	-9.13199997	-6.39599991
          46	3	16	1	0.0	-4.48899984	-8.98200035	-10.63000011
          47	3	16	3	0.0	-3.3900001	-7.12099981	-11.70499992
          48	3	16	4	0.0	-5.97599983	-8.76799965	-11.07299995
          49	3	17	1	0.0	-2.19000006	-8.74600029	-13.70300007
          50	3	17	3	0.0	-3.227	-10.4460001	-15.05799961
          51	3	17	4	0.0	-0.77100003	-9.34399986	-13.71899986
          52	3	18	1	0.0	-4.16599989	-8.68200016	-16.99900055
          53	3	18	3	0.0	-2.90400004	-7.03299999	-18.24300003
          54	3	18	4	0.0	-5.65700006	-8.47099972	-16.72400093
          55	4	19	1	0.0	-14.85099983	3.37599993	-21.27799988
          56	4	19	3	0.0	-13.96500015	1.56200004	-19.9640007
          57	4	19	4	0.0	-16.20400047	2.70099998	-21.64999962
          58	4	20	1	0.0	-13.31099987	3.25999999	-17.76099968
          59	4	20	3	0.0	-14.31999969	5.06599998	-16.53100014
          60	4	20	4	0.0	-11.90699959	3.898	-17.7840004
          61	4	21	1	0.0	-15.73700047	3.375	-14.7670002
          62	4	21	3	0.0	-15.30099964	1.53199995	-13.30000019
          63	4	21	4	0.0	-17.15500069	2.96600008	-15.21399975
          64	4	22	1	0.0	-15.11800003	3.11500001	-10.97999954
          65	4	22	3	0.0	-16.21699905	4.97599983	-9.90499973
          66	4	22	4	0.0	-13.63099957	3.32999992	-10.5369997
          67	4	23	1	0.0	-17.41699982	3.352	-7.90700006
          68	4	23	3	0.0	-16.37999916	1.65199995	-6.55200005
          69	4	23	4	0.0	-18.83600044	2.75399995	-7.89099979
          70	4	24	1	0.0	-15.44099998	3.41599989	-4.61100006
          71	4	24	3	0.0	-16.70299911	5.06500006	-3.3670001
          72	4	24	4	0.0	-13.94999981	3.62700009	-4.88600016
          73	5	25	1	0.0	-14.85099983	-1.46399999	-21.27799988
          74	5	25	3	0.0	-13.96500015	-3.27800012	-19.9640007
          75	5	25	4	0.0	-16.20400047	-2.13899994	-21.64999962
          76	5	26	1	0.0	-13.31099987	-1.58000004	-17.76099968
          77	5	26	3	0.0	-14.31999969	0.227	-16.53100014
          78	5	26	4	0.0	-11.90699959	-0.94199997	-17.7840004
          79	5	27	1	0.0	-15.73700047	-1.46500003	-14.7670002
          80	5	27	3	0.0	-15.30099964	-3.30800009	-13.30000019
          81	5	27	4	0.0	-17.15500069	-1.87300003	-15.21399975
          82	5	28	1	0.0	-15.11800003	-1.72399998	-10.97999954
          83	5	28	3	0.0	-16.21699905	0.13699999	-9.90499973
          84	5	28	4	0.0	-13.63099957	-1.50999999	-10.5369997
          85	5	29	1	0.0	-17.41699982	-1.48800004	-7.90700006
          86	5	29	3	0.0	-16.37999916	-3.18799996	-6.55200005
          87	5	29	4	0.0	-18.83600044	-2.08599997	-7.89099979
          88	5	30	1	0.0	-15.44099998	-1.42400002	-4.61100006
          89	5	30	3	0.0	-16.70299911	0.226	-3.3670001
          90	5	30	4	0.0	-13.94999981	-1.21300006	-4.88600016
          91	6	31	1	0.0	-14.85099983	-6.30299997	-21.27799988
          92	6	31	3	0.0	-13.96500015	-8.11699963	-19.9640007
          93	6	31	4	0.0	-16.20400047	-6.97800016	-21.64999962
          94	6	32	1	0.0	-13.31099987	-6.41900015	-17.76099968
          95	6	32	3	0.0	-14.31999969	-4.61199999	-16.53100014
          96	6	32	4	0.0	-11.90699959	-5.78000021	-17.7840004
          97	6	33	1	0.0	-15.73700047	-6.3039999	-14.7670002
          98	6	33	3	0.0	-15.30099964	-8.14599991	-13.30000019
          99	6	33	4	0.0	-17.15500069	-6.71299982	-15.21399975
         100	6	34	1	0.0	-15.11800003	-6.5630002	-10.97999954
         101	6	34	3	0.0	-16.21699905	-4.70200014	-9.90499973
         102	6	34	4	0.0	-13.63099957	-6.34899998	-10.5369997
         103	6	35	1	0.0	-17.41699982	-6.32700014	-7.90700006
         104	6	35	3	0.0	-16.37999916	-8.02700043	-6.55200005
         105	6	35	4	0.0	-18.83600044	-6.92500019	-7.89099979
         106	6	36	1	0.0	-15.44099998	-6.26300001	-4.61100006
         107	6	36	3	0.0	-16.70299911	-4.61399984	-3.3670001
         108	6	36	4	0.0	-13.94999981	-6.05200005	-4.88600016

Bond Coeffs

           1	200.0	3.77
           2	200.0	2.41
           3	200.0	2.50
           4	200.0	1.54
           5	200.0	1.54
Bonds

           1	2	1	2
           2	4	1	3
           3	1	1	4
           4	3	2	4
           5	2	4	5
           6	4	4	6
           7	1	4	7
           8	3	5	7
           9	2	7	8
          10	4	7	9
          11	1	7	10
          12	3	8	10
          13	2	10	11
          14	4	10	12
          15	1	10	13
          16	3	11	13
          17	2	13	14
          18	4	13	15
          19	1	13	16
          20	3	14	16
          21	2	16	17
          22	4	16	18
          23	2	19	20
          24	4	19	21
          25	1	19	22
          26	3	20	22
          27	2	22	23
          28	4	22	24
          29	1	22	25
          30	3	23	25
          31	2	25	26
          32	4	25	27
          33	1	25	28
          34	3	26	28
          35	2	28	29
          36	4	28	30
          37	1	28	31
          38	3	29	31
          39	2	31	32
          40	4	31	33
          41	1	31	34
          42	3	32	34
          43	2	34	35
          44	4	34	36
          45	2	37	38
          46	4	37	39
          47	1	37	40
          48	3	38	40
          49	2	40	41
          50	4	40	42
          51	1	40	43
          52	3	41	43
          53	2	43	44
          54	4	43	45
          55	1	43	46
          56	3	44	46
          57	2	46	47
          58	4	46	48
          59	1	46	49
          60	3	47	49
          61	2	49	50
          62	4	49	51
          63	1	49	52
          64	3	50	52
          65	2	52	53
          66	4	52	54
          67	2	55	56
          68	4	55	57
          69	1	55	58
          70	3	56	58
          71	2	58	59
          72	4	58	60
          73	1	58	61
          74	3	59	61
          75	2	61	62
          76	4	61	63
          77	1	61	64
          78	3	62	64
          79	2	64	65
          80	4	64	66
          81	1	64	67
          82	3	65	67
          83	2	67	68
          84	4	67	69
          85	1	67	70
          86	3	68	70
          87	2	70	71
          88	4	70	72
          89	2	73	74
          90	4	73	75
          91	1	73	76
          92	3	74	76
          93	2	76	77
          94	4	76	78
          95	1	76	79
          96	3	77	79
          97	2	79	80
          98	4	79	81
          99	1	79	82
         100	3	80	82
         101	2	82	83
         102	4	82	84
         103	1	82	85
         104	3	83	85
         105	2	85	86
         106	4	85	87
         107	1	85	88
         108	3	86	88
         109	2	88	89
         110	4	88	90
         111	2	91	92
         112	4	91	93
         113	1	91	94
         114	3	92	94
         115	2	94	95
         116	4	94	96
         117	1	94	97
         118	3	95	97
         119	2	97	98
         120	4	97	99
         121	1	97	100
         122	3	98	100
         123	2	100	101
         124	4	100	102
         125	1	100	103
         126	3	101	103
         127	2	103	104
         128	4	103	105
         129	1	103	106
         130	3	104	106
         131	2	106	107
         132	4	106	108

