ITEM: TIMESTEP
0
ITEM: NUMBER OF ATOMS
108
ITEM: BOX BOUNDS ss ss ss
-1.8876008440000000e+01 -7.3099202999999990e-01
-1.0606007980000001e+01 5.1060079800000002e+00
-2.1690007619999999e+01 8.0007999999999996e-02
ITEM: ATOMS id type xs ys zs
1 1 0.778176 0.73587 0.981075
2 3 0.729347 0.620417 0.920716
3 4 0.852741 0.69291 0.998162
4 1 0.693304 0.728488 0.819522
5 3 0.748911 0.843495 0.763022
6 4 0.615927 0.769093 0.820579
7 1 0.827004 0.735807 0.681993
8 3 0.802976 0.618508 0.614607
9 4 0.905153 0.709776 0.702526
10 1 0.79289 0.719323 0.508039
11 3 0.853458 0.837767 0.458659
12 4 0.710939 0.732943 0.487689
13 1 0.919592 0.734343 0.366881
14 3 0.862441 0.626145 0.30464
15 4 0.997795 0.696283 0.366146
16 1 0.810691 0.738416 0.21548
17 3 0.880242 0.843368 0.158337
18 4 0.72852 0.751845 0.228112
19 1 0.778176 0.42789 0.981075
20 3 0.729347 0.312437 0.920716
21 4 0.852741 0.384929 0.998162
22 1 0.693304 0.420507 0.819522
23 3 0.748911 0.535514 0.763022
24 4 0.615927 0.461113 0.820579
25 1 0.827004 0.427826 0.681993
26 3 0.802976 0.310527 0.614607
27 4 0.905153 0.401795 0.702526
28 1 0.79289 0.411342 0.508039
29 3 0.853458 0.529786 0.458659
30 4 0.710939 0.424962 0.487689
31 1 0.919592 0.426362 0.366881
32 3 0.862441 0.318165 0.30464
33 4 0.997795 0.388302 0.366146
34 1 0.810691 0.430435 0.21548
35 3 0.880242 0.535387 0.158337
36 4 0.72852 0.443865 0.228112
37 1 0.778176 0.119909 0.981075
38 3 0.729347 0.00445568 0.920716
39 4 0.852741 0.076948 0.998162
40 1 0.693304 0.112526 0.819522
41 3 0.748911 0.227533 0.763022
42 4 0.615927 0.153132 0.820579
43 1 0.827004 0.119845 0.681993
44 3 0.802976 0.00254633 0.614607
45 4 0.905153 0.0938141 0.702526
46 1 0.79289 0.103361 0.508039
47 3 0.853458 0.221805 0.458659
48 4 0.710939 0.116981 0.487689
49 1 0.919592 0.118381 0.366881
50 3 0.862441 0.0101838 0.30464
51 4 0.997795 0.0803212 0.366146
52 1 0.810691 0.122455 0.21548
53 3 0.880242 0.227406 0.158337
54 4 0.72852 0.135884 0.228112
55 1 0.221824 0.889893 0.0189255
56 3 0.270653 0.77444 0.0792837
57 4 0.147259 0.846932 0.00183776
58 1 0.306696 0.88251 0.180478
59 3 0.251089 0.997454 0.236978
60 4 0.384073 0.923116 0.179421
61 1 0.172996 0.889829 0.318007
62 3 0.197024 0.77253 0.385393
63 4 0.0948474 0.863798 0.297474
64 1 0.20711 0.873281 0.491961
65 3 0.146542 0.991726 0.541341
66 4 0.289061 0.886965 0.512311
67 1 0.0804082 0.888365 0.633119
68 3 0.137559 0.780168 0.69536
69 4 0.0022049 0.850305 0.633854
70 1 0.189309 0.892438 0.78452
71 3 0.119758 0.99739 0.841663
72 4 0.27148 0.905868 0.771888
73 1 0.221824 0.581848 0.0189255
74 3 0.270653 0.466395 0.0792837
75 4 0.147259 0.538887 0.00183776
76 1 0.306696 0.574465 0.180478
77 3 0.251089 0.689473 0.236978
78 4 0.384073 0.615071 0.179421
79 1 0.172996 0.581785 0.318007
80 3 0.197024 0.464486 0.385393
81 4 0.0948474 0.555817 0.297474
82 1 0.20711 0.5653 0.491961
83 3 0.146542 0.683745 0.541341
84 4 0.289061 0.57892 0.512311
85 1 0.0804082 0.580321 0.633119
86 3 0.137559 0.472123 0.69536
87 4 0.0022049 0.542261 0.633854
88 1 0.189309 0.584394 0.78452
89 3 0.119758 0.689409 0.841663
90 4 0.27148 0.597823 0.771888
91 1 0.221824 0.273867 0.0189255
92 3 0.270653 0.158414 0.0792837
93 4 0.147259 0.230907 0.00183776
94 1 0.306696 0.266484 0.180478
95 3 0.251089 0.381492 0.236978
96 4 0.384073 0.307154 0.179421
97 1 0.172996 0.273804 0.318007
98 3 0.197024 0.156569 0.385393
99 4 0.0948474 0.247773 0.297474
100 1 0.20711 0.257319 0.491961
101 3 0.146542 0.375764 0.541341
102 4 0.289061 0.27094 0.512311
103 1 0.0804082 0.27234 0.633119
104 3 0.137559 0.164142 0.69536
105 4 0.0022049 0.23428 0.633854
106 1 0.189309 0.276413 0.78452
107 3 0.119758 0.381365 0.841663
108 4 0.27148 0.289842 0.771888
