LAMMPS protain data file

         108  atoms
         132  bonds
           0  angles
           0  dihedrals
           0  impropers

           5  atom types
           5  bond types
           0  angle types
           0  dihedral types
           0  improper types

-200.0	200.0	xlo xhi
-200.0	200.0	ylo yhi
-200.0	200.0	zlo zhi

Masses

           1	27.0
           2	14.0
           3	28.0
           4	60.0
           5	60.0

Atoms

           1	1	1	1	0.0	7.50099993	-0.64099997	4.33599997
           2	1	1	3	0.0	6.17600012	1.20799994	3.64100003
           3	1	1	4	0.0	7.60599995	-0.792	5.87099981
           4	1	2	1	0.0	3.72000003	-0.164	3.91700006
           5	1	2	3	0.0	2.67499995	-2.01699996	5.01900005
           6	1	2	4	0.0	3.33100009	-0.40700001	2.44099998
           7	1	3	1	0.0	0.74800003	-0.40400001	6.38600016
           8	1	3	3	0.0	-0.56900001	1.42499995	5.60900021
           9	1	3	4	0.0	0.86500001	0.064	7.85400009
          10	1	4	1	0.0	-2.79699993	-0.223	4.99800014
          11	1	4	3	0.0	-3.87100005	-2.00300002	6.21600008
          12	1	4	4	0.0	-2.954	-0.76899999	3.56399989
          13	1	5	1	0.0	-6.08099985	-0.45199999	6.90799999
          14	1	5	3	0.0	-7.34899998	1.42799997	6.23500013
          15	1	5	4	0.0	-5.98600006	-0.23899999	8.44499969
          16	1	6	1	0.0	-9.56999969	-0.134	5.38899994
          17	1	6	3	0.0	-10.63700008	-2.15899992	6.05800009
          18	1	6	4	0.0	-9.67700005	-0.38100001	3.898
          19	2	7	1	0.0	-7.50099993	-0.64099997	-4.33599997
          20	2	7	3	0.0	-6.17600012	1.20799994	-3.64100003
          21	2	7	4	0.0	-7.60599995	-0.792	-5.87099981
          22	2	8	1	0.0	-3.72000003	-0.164	-3.91700006
          23	2	8	3	0.0	-2.67499995	-2.01699996	-5.01900005
          24	2	8	4	0.0	-3.33100009	-0.40700001	-2.44099998
          25	2	9	1	0.0	-0.74800003	-0.40400001	-6.38600016
          26	2	9	3	0.0	0.56900001	1.42499995	-5.60900021
          27	2	9	4	0.0	-0.86500001	0.064	-7.85400009
          28	2	10	1	0.0	2.79699993	-0.223	-4.99800014
          29	2	10	3	0.0	3.87100005	-2.00300002	-6.21600008
          30	2	10	4	0.0	2.954	-0.76899999	-3.56399989
          31	2	11	1	0.0	6.08099985	-0.45199999	-6.90799999
          32	2	11	3	0.0	7.34899998	1.42799997	-6.23500013
          33	2	11	4	0.0	5.98600006	-0.23899999	-8.44499969
          34	2	12	1	0.0	9.56999969	-0.134	-5.38899994
          35	2	12	3	0.0	10.63700008	-2.15899992	-6.05800009
          36	2	12	4	0.0	9.67700005	-0.38100001	-3.898
          37	3	13	1	0.0	-8.8579998	-5.20699978	5.45100021
          38	3	13	3	0.0	-7.48600006	-3.38700008	6.20499992
          39	3	13	4	0.0	-8.98499966	-4.77600002	3.96799994
          40	3	14	1	0.0	-5.2750001	-5.04400015	6.90399981
          41	3	14	3	0.0	-4.16099977	-6.87599993	5.83500004
          42	3	14	4	0.0	-5.1789999	-5.546	8.36400032
          43	3	15	1	0.0	-2.16400003	-5.26399994	4.671
          44	3	15	3	0.0	-0.87199998	-3.34899998	5.30900002
          45	3	15	4	0.0	-2.31200004	-5.03299999	3.14199996
          46	3	16	1	0.0	1.44500005	-4.86800003	5.77699995
          47	3	16	3	0.0	2.44000006	-6.80499983	4.78999996
          48	3	16	4	0.0	1.66100001	-5.08699989	7.28800011
          49	3	17	1	0.0	4.70300007	-5.44700003	3.78200006
          50	3	17	3	0.0	5.82999992	-3.42000008	4.23500013
          51	3	17	4	0.0	4.45699978	-5.84600019	2.31999993
          52	3	18	1	0.0	8.44799995	-4.65100002	3.9000001
          53	3	18	3	0.0	9.45699978	-6.80100012	3.66100001
          54	3	18	4	0.0	8.76000023	-4.38199997	5.36600018
          55	4	19	1	0.0	-8.8579998	4.35400009	5.45100021
          56	4	19	3	0.0	-7.48600006	6.17399979	6.20499992
          57	4	19	4	0.0	-8.98499966	4.78499985	3.96799994
          58	4	20	1	0.0	-5.2750001	4.5170002	6.90399981
          59	4	20	3	0.0	-4.16099977	2.68499994	5.83500004
          60	4	20	4	0.0	-5.1789999	4.01499987	8.36400032
          61	4	21	1	0.0	-2.16400003	4.29699993	4.671
          62	4	21	3	0.0	-0.87199998	6.21199989	5.30900002
          63	4	21	4	0.0	-2.31200004	4.52799988	3.14199996
          64	4	22	1	0.0	1.44500005	4.69299984	5.77699995
          65	4	22	3	0.0	2.44000006	2.75600004	4.78999996
          66	4	22	4	0.0	1.66100001	4.47399998	7.28800011
          67	4	23	1	0.0	4.70300007	4.11399984	3.78200006
          68	4	23	3	0.0	5.82999992	6.14099979	4.23500013
          69	4	23	4	0.0	4.45699978	3.71499991	2.31999993
          70	4	24	1	0.0	8.44799995	4.90999985	3.9000001
          71	4	24	3	0.0	9.45699978	2.75999999	3.66100001
          72	4	24	4	0.0	8.76000023	5.1789999	5.36600018
          73	5	25	1	0.0	8.8579998	-5.20699978	-5.45100021
          74	5	25	3	0.0	7.48600006	-3.38700008	-6.20499992
          75	5	25	4	0.0	8.98499966	-4.77600002	-3.96799994
          76	5	26	1	0.0	5.2750001	-5.04400015	-6.90399981
          77	5	26	3	0.0	4.16099977	-6.87599993	-5.83500004
          78	5	26	4	0.0	5.1789999	-5.546	-8.36400032
          79	5	27	1	0.0	2.16400003	-5.26399994	-4.671
          80	5	27	3	0.0	0.87199998	-3.34899998	-5.30900002
          81	5	27	4	0.0	2.31200004	-5.03299999	-3.14199996
          82	5	28	1	0.0	-1.44500005	-4.86800003	-5.77699995
          83	5	28	3	0.0	-2.44000006	-6.80499983	-4.78999996
          84	5	28	4	0.0	-1.66100001	-5.08699989	-7.28800011
          85	5	29	1	0.0	-4.70300007	-5.44700003	-3.78200006
          86	5	29	3	0.0	-5.82999992	-3.42000008	-4.23500013
          87	5	29	4	0.0	-4.45699978	-5.84600019	-2.31999993
          88	5	30	1	0.0	-8.44799995	-4.65100002	-3.9000001
          89	5	30	3	0.0	-9.45699978	-6.80100012	-3.66100001
          90	5	30	4	0.0	-8.76000023	-4.38199997	-5.36600018
          91	6	31	1	0.0	8.8579998	4.35400009	-5.45100021
          92	6	31	3	0.0	7.48600006	6.17399979	-6.20499992
          93	6	31	4	0.0	8.98499966	4.78499985	-3.96799994
          94	6	32	1	0.0	5.2750001	4.5170002	-6.90399981
          95	6	32	3	0.0	4.16099977	2.68499994	-5.83500004
          96	6	32	4	0.0	5.1789999	4.01499987	-8.36400032
          97	6	33	1	0.0	2.16400003	4.29699993	-4.671
          98	6	33	3	0.0	0.87199998	6.21199989	-5.30900002
          99	6	33	4	0.0	2.31200004	4.52799988	-3.14199996
         100	6	34	1	0.0	-1.44500005	4.69299984	-5.77699995
         101	6	34	3	0.0	-2.44000006	2.75600004	-4.78999996
         102	6	34	4	0.0	-1.66100001	4.47399998	-7.28800011
         103	6	35	1	0.0	-4.70300007	4.11399984	-3.78200006
         104	6	35	3	0.0	-5.82999992	6.14099979	-4.23500013
         105	6	35	4	0.0	-4.45699978	3.71499991	-2.31999993
         106	6	36	1	0.0	-8.44799995	4.90999985	-3.9000001
         107	6	36	3	0.0	-9.45699978	2.75999999	-3.66100001
         108	6	36	4	0.0	-8.76000023	5.1789999	-5.36600018

Bond Coeffs

           1	200.0	3.77
           2	200.0	2.41
           3	200.0	2.50
           4	200.0	1.54
           5	200.0	1.54
Bonds

           1	2	1	2
           2	4	1	3
           3	1	1	4
           4	3	2	4
           5	2	4	5
           6	4	4	6
           7	1	4	7
           8	3	5	7
           9	2	7	8
          10	4	7	9
          11	1	7	10
          12	3	8	10
          13	2	10	11
          14	4	10	12
          15	1	10	13
          16	3	11	13
          17	2	13	14
          18	4	13	15
          19	1	13	16
          20	3	14	16
          21	2	16	17
          22	4	16	18
          23	2	19	20
          24	4	19	21
          25	1	19	22
          26	3	20	22
          27	2	22	23
          28	4	22	24
          29	1	22	25
          30	3	23	25
          31	2	25	26
          32	4	25	27
          33	1	25	28
          34	3	26	28
          35	2	28	29
          36	4	28	30
          37	1	28	31
          38	3	29	31
          39	2	31	32
          40	4	31	33
          41	1	31	34
          42	3	32	34
          43	2	34	35
          44	4	34	36
          45	2	37	38
          46	4	37	39
          47	1	37	40
          48	3	38	40
          49	2	40	41
          50	4	40	42
          51	1	40	43
          52	3	41	43
          53	2	43	44
          54	4	43	45
          55	1	43	46
          56	3	44	46
          57	2	46	47
          58	4	46	48
          59	1	46	49
          60	3	47	49
          61	2	49	50
          62	4	49	51
          63	1	49	52
          64	3	50	52
          65	2	52	53
          66	4	52	54
          67	2	55	56
          68	4	55	57
          69	1	55	58
          70	3	56	58
          71	2	58	59
          72	4	58	60
          73	1	58	61
          74	3	59	61
          75	2	61	62
          76	4	61	63
          77	1	61	64
          78	3	62	64
          79	2	64	65
          80	4	64	66
          81	1	64	67
          82	3	65	67
          83	2	67	68
          84	4	67	69
          85	1	67	70
          86	3	68	70
          87	2	70	71
          88	4	70	72
          89	2	73	74
          90	4	73	75
          91	1	73	76
          92	3	74	76
          93	2	76	77
          94	4	76	78
          95	1	76	79
          96	3	77	79
          97	2	79	80
          98	4	79	81
          99	1	79	82
         100	3	80	82
         101	2	82	83
         102	4	82	84
         103	1	82	85
         104	3	83	85
         105	2	85	86
         106	4	85	87
         107	1	85	88
         108	3	86	88
         109	2	88	89
         110	4	88	90
         111	2	91	92
         112	4	91	93
         113	1	91	94
         114	3	92	94
         115	2	94	95
         116	4	94	96
         117	1	94	97
         118	3	95	97
         119	2	97	98
         120	4	97	99
         121	1	97	100
         122	3	98	100
         123	2	100	101
         124	4	100	102
         125	1	100	103
         126	3	101	103
         127	2	103	104
         128	4	103	105
         129	1	103	106
         130	3	104	106
         131	2	106	107
         132	4	106	108

