ITEM: TIMESTEP
0
ITEM: NUMBER OF ATOMS
108
ITEM: BOX BOUNDS ss ss ss
-1.0677008080000000e+01 1.0677008080000000e+01
-6.9160079300000001e+00 6.2520078900000007e+00
-8.4850076899999998e+00 8.4850076899999998e+00
ITEM: ATOMS id type xs ys zs
1 1 0.851269 0.476534 0.755509
2 3 0.78922 0.61695 0.714555
3 4 0.856186 0.465067 0.845963
4 1 0.674206 0.512758 0.730819
5 3 0.625269 0.372038 0.795757
6 4 0.655989 0.494304 0.643842
7 1 0.535029 0.494532 0.876311
8 3 0.473354 0.633429 0.830524
9 4 0.540508 0.530073 0.962816
10 1 0.369018 0.508278 0.794519
11 3 0.318723 0.373102 0.866293
12 4 0.361665 0.466814 0.710017
13 1 0.215229 0.490887 0.907071
14 3 0.155849 0.633657 0.867413
15 4 0.219678 0.507063 0.997642
16 1 0.0518408 0.515036 0.81756
17 3 0.00187356 0.361255 0.856983
18 4 0.04683 0.496279 0.729699
19 1 0.148731 0.476534 0.244491
20 3 0.21078 0.61695 0.285445
21 4 0.143814 0.465067 0.154037
22 1 0.325794 0.512758 0.269181
23 3 0.374731 0.372038 0.204243
24 4 0.344011 0.494304 0.356158
25 1 0.464971 0.494532 0.123689
26 3 0.526646 0.633429 0.169476
27 4 0.459492 0.530073 0.0371837
28 1 0.630982 0.508278 0.205481
29 3 0.681277 0.373102 0.133707
30 4 0.638335 0.466814 0.289983
31 1 0.784771 0.490887 0.0929291
32 3 0.844151 0.633657 0.132587
33 4 0.780322 0.507063 0.00235757
34 1 0.948159 0.515036 0.18244
35 3 0.998126 0.361255 0.143017
36 4 0.95317 0.496279 0.270301
37 1 0.0851834 0.129785 0.821214
38 3 0.149434 0.267998 0.865645
39 4 0.0792361 0.162516 0.733824
40 1 0.252974 0.142163 0.906835
41 3 0.305142 0.00303827 0.843842
42 4 0.25747 0.104041 0.992869
43 1 0.398661 0.125456 0.77525
44 3 0.459165 0.270884 0.812846
45 4 0.39173 0.142999 0.68515
46 1 0.567669 0.155529 0.840424
47 3 0.614264 0.00843013 0.782263
48 4 0.577784 0.138898 0.929463
49 1 0.72024 0.111559 0.722864
50 3 0.773017 0.265492 0.749558
51 4 0.70872 0.0812581 0.636712
52 1 0.895616 0.172008 0.729817
53 3 0.942868 0.00873388 0.715733
54 4 0.910227 0.192437 0.816205
55 1 0.0851834 0.855862 0.821214
56 3 0.149434 0.994076 0.865645
57 4 0.0792361 0.888593 0.733824
58 1 0.252974 0.868241 0.906835
59 3 0.305142 0.729116 0.843842
60 4 0.25747 0.830118 0.992869
61 1 0.398661 0.851534 0.77525
62 3 0.459165 0.996962 0.812846
63 4 0.39173 0.869076 0.68515
64 1 0.567669 0.881606 0.840424
65 3 0.614264 0.734508 0.782263
66 4 0.577784 0.864975 0.929463
67 1 0.72024 0.837636 0.722864
68 3 0.773017 0.99157 0.749558
69 4 0.70872 0.807336 0.636712
70 1 0.895616 0.898086 0.729817
71 3 0.942868 0.734811 0.715733
72 4 0.910227 0.918514 0.816205
73 1 0.914817 0.129785 0.178786
74 3 0.850566 0.267998 0.134355
75 4 0.920764 0.162516 0.266176
76 1 0.747026 0.142163 0.0931648
77 3 0.694858 0.00303827 0.156158
78 4 0.74253 0.104041 0.00713066
79 1 0.601339 0.125456 0.22475
80 3 0.540835 0.270884 0.187154
81 4 0.60827 0.142999 0.31485
82 1 0.432331 0.155529 0.159576
83 3 0.385736 0.00843013 0.217737
84 4 0.422216 0.138898 0.0705366
85 1 0.27976 0.111559 0.277136
86 3 0.226983 0.265492 0.250442
87 4 0.29128 0.0812581 0.363288
88 1 0.104384 0.172008 0.270183
89 3 0.0571325 0.00873388 0.284267
90 4 0.0897727 0.192437 0.183795
91 1 0.914817 0.855862 0.178786
92 3 0.850566 0.994076 0.134355
93 4 0.920764 0.888593 0.266176
94 1 0.747026 0.868241 0.0931648
95 3 0.694858 0.729116 0.156158
96 4 0.74253 0.830118 0.00713066
97 1 0.601339 0.851534 0.22475
98 3 0.540835 0.996962 0.187154
99 4 0.60827 0.869076 0.31485
100 1 0.432331 0.881606 0.159576
101 3 0.385736 0.734508 0.217737
102 4 0.422216 0.864975 0.0705366
103 1 0.27976 0.837636 0.277136
104 3 0.226983 0.99157 0.250442
105 4 0.29128 0.807336 0.363288
106 1 0.104384 0.898086 0.270183
107 3 0.0571325 0.734811 0.284267
108 4 0.0897727 0.918514 0.183795
