LAMMPS protain data file

         126  atoms
         164  bonds
           0  angles
           0  dihedrals
           0  impropers

           5  atom types
           5  bond types
           0  angle types
           0  dihedral types
           0  improper types

-200.0	200.0	xlo xhi
-200.0	200.0	ylo yhi
-200.0	200.0	zlo zhi

Masses

           1	27.0
           2	14.0
           3	28.0
           4	60.0
           5	60.0

Atoms

           1	1	1	1	0.0	8.10200024	-6.45800018	2.27699995
           2	1	1	3	0.0	9.52900028	-4.80600023	3.27699995
           3	1	1	4	0.0	8.1960001	-7.7750001	3.04999995
           4	1	2	1	0.0	7.51100016	-3.79200006	4.89799976
           5	1	2	3	0.0	6.53000021	-5.10500002	6.65299988
           6	1	2	4	0.0	6.44500017	-2.72099996	4.65600014
           7	1	3	1	0.0	8.55599976	-4.5170002	8.4630003
           8	1	3	3	0.0	9.15499973	-2.23099995	8.88399982
           9	1	3	4	0.0	9.55700016	-5.66599989	8.59899998
          10	1	4	1	0.0	9.27099991	-2.58599997	11.63899994
          11	1	4	3	0.0	9.44299984	-4.21899986	13.39000034
          12	1	4	4	0.0	8.01399994	-1.79499996	12.00800037
          13	1	5	1	0.0	11.82299995	-3.171	14.37300014
          14	1	5	3	0.0	12.53100014	-0.995	15.10000038
          15	1	5	4	0.0	13.1789999	-3.61199999	13.81900024
          16	1	6	1	0.0	11.82499981	-1.45899999	17.74799919
          17	1	6	3	0.0	12.50699997	-3.34200001	19.07299995
          18	1	6	4	0.0	10.4460001	-0.96399999	18.19099998
          19	1	7	1	0.0	14.1239996	-1.80900002	20.73399925
          20	1	7	3	0.0	14.8380003	0.30700001	21.61499977
          21	1	7	4	0.0	15.51399994	-2.10800004	20.16900063
          22	1	8	1	0.0	13.73099995	-0.16500001	24.12000084
          23	1	8	3	0.0	14.25199986	-1.99100006	25.5909996
          24	1	8	4	0.0	12.31099987	0.257	24.50600052
          25	1	9	1	0.0	16.18799973	-0.55299997	26.97400093
          26	1	9	3	0.0	17.16399956	1.55499995	27.57799911
          27	1	9	4	0.0	17.49500084	-1.17499995	26.47800064
          28	1	10	1	0.0	16.25799942	1.421	30.20199966
          29	1	10	3	0.0	15.70400047	-0.32100001	31.75799942
          30	1	10	4	0.0	15.21500015	2.53699994	30.10499954
          31	1	11	1	0.0	17.14299965	0.83700001	33.83499908
          32	1	11	3	0.0	18.98399925	-0.69599998	33.99000168
          33	1	11	4	0.0	15.77999973	0.74900001	34.52600098
          34	1	12	1	0.0	17.40099907	-2.921	33.47299957
          35	1	12	3	0.0	16.32699966	-5.01100016	32.97900009
          36	1	12	5	0.0	18.10218754	-2.61824682	32.13573548
          37	1	13	1	0.0	14.61499977	-3.88700008	31.10000038
          38	1	13	3	0.0	15.49199963	-2.69899988	29.20700073
          39	1	13	4	0.0	13.2159996	-3.43199992	31.52000046
          40	1	14	1	0.0	14.60200024	-4.59800005	27.38199997
          41	1	14	3	0.0	12.96199989	-6.24100018	26.77000046
          42	1	14	4	0.0	15.84599972	-5.38800001	26.96999931
          43	1	15	1	0.0	11.4289999	-4.42600012	25.32600021
          44	1	15	3	0.0	11.5340004	-3.16799998	23.2840004
          45	1	15	4	0.0	10.29599953	-3.546	25.85700035
          46	1	16	1	0.0	12.21899986	-5.3829999	21.75
          47	1	16	3	0.0	10.46000004	-6.78800011	20.91500092
          48	1	16	4	0.0	13.2510004	-6.4460001	21.36599922
          49	1	17	1	0.0	9.11699963	-4.67999983	19.69799995
          50	1	17	3	0.0	10.47500038	-4.6329999	17.71899986
          51	1	17	4	0.0	8.42199993	-3.32500005	19.84499931
          52	1	18	1	0.0	8.51799965	-5.8130002	16.13699913
          53	1	18	3	0.0	6.12099981	-5.67299986	16.14500046
          54	1	18	4	0.0	9.15799999	-7.18499994	15.92300034
          55	1	19	1	0.0	5.92399979	-5.89900017	13.38199997
          56	1	19	3	0.0	7.29799986	-5.64099979	11.43000031
          57	1	19	4	0.0	5.1329999	-4.61100006	13.61999989
          58	1	20	1	0.0	5.41300011	-6.78399992	9.73700047
          59	1	20	3	0.0	3.01900005	-6.96299982	9.76399994
          60	1	20	4	0.0	6.13700008	-8.09300041	9.41499996
          61	1	21	1	0.0	2.76600003	-6.32000017	7.07200003
          62	1	21	3	0.0	3.48600006	-8.42599964	6.171
          63	1	21	4	0.0	2.60599995	-4.9380002	6.43499994
          64	2	22	1	0.0	8.75800037	0.53100002	4.23899984
          65	2	22	3	0.0	9.07999992	-1.41100001	5.61399984
          66	2	22	4	0.0	7.69199991	1.47500002	4.79699993
          67	2	23	1	0.0	10.97900009	-0.17200001	7.22200012
          68	2	23	3	0.0	11.85099983	1.79900002	8.28100014
          69	2	23	4	0.0	12.35200024	-0.70099998	6.80299997
          70	2	24	1	0.0	10.17800045	1.56500006	10.48799992
          71	2	24	3	0.0	11.4829998	-0.119	11.59500027
          72	2	24	4	0.0	8.76900005	1.68099999	11.07199955
          73	2	25	1	0.0	12.66100025	1.69400001	13.34200001
          74	2	25	3	0.0	12.65200043	3.89599991	14.29800034
          75	2	25	4	0.0	14.06900024	1.66299999	12.74499989
          76	2	26	1	0.0	12.10200024	2.97099996	16.86100006
          77	2	26	3	0.0	12.1260004	1.22000003	18.50399971
          78	2	26	4	0.0	10.59599972	3.18199992	17.03000069
          79	2	27	1	0.0	14.31000042	2.28299999	19.85700035
          80	2	27	3	0.0	14.52999973	4.57399988	20.53800011
          81	2	27	4	0.0	15.60499954	1.56900001	19.4640007
          82	2	28	1	0.0	14.99100018	3.921	23.20100021
          83	2	28	3	0.0	15.4460001	2.85400009	25.3029995
          84	2	28	4	0.0	13.62300014	4.19799995	23.82600021
          85	2	29	1	0.0	18.19400024	2.81299996	24.88500023
          86	2	29	3	0.0	19.07799911	5.03200006	25.13500023
          87	2	29	4	0.0	19.22699928	1.98800004	24.11599922
          88	2	30	1	0.0	19.63199997	4.69399977	27.83799934
          89	2	30	3	0.0	20.27300072	2.99000001	29.40399933
          90	2	30	4	0.0	18.5529995	5.45100021	28.61499977
          91	2	31	1	0.0	22.75399971	4.13999987	29.90600014
          92	2	31	3	0.0	23.60400009	6.38600016	29.88599968
          93	2	31	4	0.0	23.60400009	3.07299995	29.21299934
          94	2	32	1	0.0	25.0189991	6.05600023	32.25600052
          95	2	32	3	0.0	23.65399933	7.52400017	33.57699966
          96	2	32	4	0.0	26.24799919	6.40199995	31.41300011
          97	2	33	1	0.0	23.38800049	9.39599991	31.53899956
          98	2	33	3	0.0	22.96999931	11.17500019	29.9829998
          99	2	33	5	0.0	22.06630704	8.60824787	31.47439961
         100	2	34	1	0.0	22.81100082	9.4630003	27.79899979
         101	2	34	3	0.0	21.85199928	7.34200001	27.21299934
         102	2	34	4	0.0	24.11599922	9.43500042	27.00099945
         103	2	35	1	0.0	19.57600021	8.48200035	26.09600067
         104	2	35	3	0.0	19.66699982	9.57699966	23.96100044
         105	2	35	4	0.0	18.23999977	9.03199959	26.59900093
         106	2	36	1	0.0	20.04800034	7.204	22.56500053
         107	2	36	3	0.0	18.34300041	5.60300016	22.02300072
         108	2	36	4	0.0	21.19300079	6.24300003	22.23900032
         109	2	37	1	0.0	16.74500084	7.48000002	20.73699951
         110	2	37	3	0.0	17.71199989	8.19999981	18.6609993
         111	2	37	4	0.0	15.71000004	8.53100014	21.1420002
         112	2	38	1	0.0	16.09600067	6.53499985	17.12999916
         113	2	38	3	0.0	13.85700035	5.67000008	17.09399986
         114	2	38	4	0.0	16.86700058	5.25	16.81800079
         115	2	39	1	0.0	13.13500023	7.1500001	14.85499954
         116	2	39	3	0.0	13.81400013	8.49699974	12.98700047
         117	2	39	4	0.0	12.1960001	8.17599964	15.49300003
         118	2	40	1	0.0	12.84799957	6.69000006	11.10900021
         119	2	40	3	0.0	12.1590004	4.39599991	10.94099998
         120	2	40	4	0.0	14.29699993	6.78999996	10.63000011
         121	2	41	1	0.0	10.93799973	4.76100016	8.47099972
         122	2	41	3	0.0	11.31700039	6.06899977	6.49300003
         123	2	41	4	0.0	9.42399979	4.79699993	8.69099998
         124	2	42	1	0.0	11.96000004	3.85500002	4.94099998
         125	2	42	3	0.0	9.71500015	3.08899999	4.56799984
         126	2	42	4	0.0	13.00300026	2.7809999	4.62599993

Bond Coeffs

           1	200.0	3.77
           2	200.0	2.41
           3	200.0	2.50
           4	200.0	1.54
           5	200.0	1.54
Bonds

           1	2	1	2
           2	4	1	3
           3	1	1	4
           4	3	2	4
           5	2	4	5
           6	4	4	6
           7	1	4	7
           8	3	5	7
           9	2	7	8
          10	4	7	9
          11	1	7	10
          12	3	8	10
          13	2	10	11
          14	4	10	12
          15	1	10	13
          16	3	11	13
          17	2	13	14
          18	4	13	15
          19	1	13	16
          20	3	14	16
          21	2	16	17
          22	4	16	18
          23	1	16	19
          24	3	17	19
          25	2	19	20
          26	4	19	21
          27	1	19	22
          28	3	20	22
          29	2	22	23
          30	4	22	24
          31	1	22	25
          32	3	23	25
          33	2	25	26
          34	4	25	27
          35	1	25	28
          36	3	26	28
          37	2	28	29
          38	4	28	30
          39	1	28	31
          40	3	29	31
          41	2	31	32
          42	4	31	33
          43	1	31	34
          44	3	32	34
          45	2	34	35
          46	5	34	36
          47	1	34	37
          48	3	35	37
          49	2	37	38
          50	4	37	39
          51	1	37	40
          52	3	38	40
          53	2	40	41
          54	4	40	42
          55	1	40	43
          56	3	41	43
          57	2	43	44
          58	4	43	45
          59	1	43	46
          60	3	44	46
          61	2	46	47
          62	4	46	48
          63	1	46	49
          64	3	47	49
          65	2	49	50
          66	4	49	51
          67	1	49	52
          68	3	50	52
          69	2	52	53
          70	4	52	54
          71	1	52	55
          72	3	53	55
          73	2	55	56
          74	4	55	57
          75	1	55	58
          76	3	56	58
          77	2	58	59
          78	4	58	60
          79	1	58	61
          80	3	59	61
          81	2	61	62
          82	4	61	63
          83	2	64	65
          84	4	64	66
          85	1	64	67
          86	3	65	67
          87	2	67	68
          88	4	67	69
          89	1	67	70
          90	3	68	70
          91	2	70	71
          92	4	70	72
          93	1	70	73
          94	3	71	73
          95	2	73	74
          96	4	73	75
          97	1	73	76
          98	3	74	76
          99	2	76	77
         100	4	76	78
         101	1	76	79
         102	3	77	79
         103	2	79	80
         104	4	79	81
         105	1	79	82
         106	3	80	82
         107	2	82	83
         108	4	82	84
         109	1	82	85
         110	3	83	85
         111	2	85	86
         112	4	85	87
         113	1	85	88
         114	3	86	88
         115	2	88	89
         116	4	88	90
         117	1	88	91
         118	3	89	91
         119	2	91	92
         120	4	91	93
         121	1	91	94
         122	3	92	94
         123	2	94	95
         124	4	94	96
         125	1	94	97
         126	3	95	97
         127	2	97	98
         128	5	97	99
         129	1	97	100
         130	3	98	100
         131	2	100	101
         132	4	100	102
         133	1	100	103
         134	3	101	103
         135	2	103	104
         136	4	103	105
         137	1	103	106
         138	3	104	106
         139	2	106	107
         140	4	106	108
         141	1	106	109
         142	3	107	109
         143	2	109	110
         144	4	109	111
         145	1	109	112
         146	3	110	112
         147	2	112	113
         148	4	112	114
         149	1	112	115
         150	3	113	115
         151	2	115	116
         152	4	115	117
         153	1	115	118
         154	3	116	118
         155	2	118	119
         156	4	118	120
         157	1	118	121
         158	3	119	121
         159	2	121	122
         160	4	121	123
         161	1	121	124
         162	3	122	124
         163	2	124	125
         164	4	124	126

