ITEM: TIMESTEP
0
ITEM: NUMBER OF ATOMS
126
ITEM: BOX BOUNDS ss ss ss
2.5659919500000004e+00 2.6288007190000002e+01
-8.4660076400000008e+00 1.1215008190000001e+01
2.2369919500000002e+00 3.4566008979999999e+01
ITEM: ATOMS id type xs ys zs
1 1 0.23337 0.102028 0.00123753
2 3 0.293525 0.185966 0.0321695
3 4 0.237333 0.0351104 0.0251479
4 1 0.208456 0.237488 0.0823102
5 3 0.167103 0.170774 0.136596
6 4 0.163519 0.291906 0.0748247
7 1 0.252508 0.200651 0.192583
8 3 0.277759 0.316803 0.205605
9 4 0.294705 0.142269 0.196789
10 1 0.282649 0.298765 0.290823
11 3 0.2899 0.215792 0.344984
12 4 0.22966 0.338956 0.302236
13 1 0.390229 0.269041 0.375391
14 3 0.420074 0.379605 0.397878
15 4 0.447391 0.246634 0.358254
16 1 0.390313 0.356029 0.479786
17 3 0.419063 0.260353 0.520771
18 4 0.332181 0.38118 0.493489
19 1 0.487227 0.338245 0.572149
20 3 0.517326 0.44576 0.5994
21 4 0.545822 0.323053 0.554672
22 1 0.47066 0.421777 0.676884
23 3 0.492623 0.328998 0.722385
24 4 0.4108 0.443219 0.688824
25 1 0.574235 0.402063 0.765164
26 3 0.615378 0.509171 0.783847
27 4 0.629331 0.370459 0.749822
28 1 0.577186 0.502363 0.865013
29 3 0.553832 0.413851 0.913143
30 4 0.533218 0.559067 0.862012
31 1 0.614493 0.472689 0.977388
32 3 0.6921 0.394797 0.982183
33 4 0.557036 0.468218 0.998762
34 1 0.625369 0.281744 0.966191
35 3 0.580094 0.17555 0.950911
36 5 0.654927 0.297127 0.924827
37 1 0.507925 0.232661 0.89279
38 3 0.544895 0.293024 0.834235
39 4 0.44895 0.25578 0.905781
40 1 0.507377 0.196535 0.777784
41 3 0.438243 0.113053 0.758854
42 4 0.559818 0.156395 0.765041
43 1 0.37362 0.205274 0.714188
44 3 0.378046 0.269194 0.651025
45 4 0.325858 0.249987 0.730613
46 1 0.406922 0.156649 0.603576
47 3 0.332771 0.0852602 0.577748
48 4 0.450426 0.102637 0.591698
49 1 0.276157 0.192369 0.540103
50 3 0.333404 0.194757 0.478889
51 4 0.24686 0.261217 0.54465
52 1 0.250906 0.1348 0.429955
53 3 0.149861 0.141914 0.430202
54 4 0.277886 0.0650885 0.423335
55 1 0.141557 0.130431 0.344737
56 3 0.199477 0.14354 0.284358
57 4 0.108212 0.195874 0.352099
58 1 0.120015 0.0854635 0.23199
59 3 0.0190965 0.0763684 0.232825
60 4 0.150536 0.0189526 0.22203
61 1 0.00843133 0.109039 0.149556
62 3 0.0387829 0.00203282 0.121687
63 4 0.00168653 0.179259 0.129853
64 1 0.261024 0.457141 0.061926
65 3 0.274598 0.358468 0.104457
66 4 0.216087 0.505106 0.0791861
67 1 0.35465 0.421422 0.154196
68 3 0.391409 0.521569 0.186953
69 4 0.412529 0.394543 0.141236
70 1 0.320884 0.509679 0.25522
71 3 0.375896 0.424115 0.289462
72 4 0.261487 0.515573 0.273284
73 1 0.425554 0.516234 0.3435
74 3 0.425175 0.628118 0.373071
75 4 0.484909 0.514659 0.325033
76 1 0.40199 0.581119 0.452349
77 3 0.403002 0.49215 0.503171
78 4 0.338504 0.59184 0.457577
79 1 0.495068 0.546161 0.545021
80 3 0.504342 0.662568 0.566086
81 4 0.549659 0.509883 0.532865
82 1 0.523775 0.629389 0.648458
83 3 0.542956 0.575174 0.713477
84 4 0.466107 0.643463 0.66779
85 1 0.658798 0.573091 0.700547
86 3 0.696063 0.685839 0.70828
87 4 0.702344 0.531172 0.676761
88 1 0.719416 0.668665 0.791889
89 3 0.746438 0.582084 0.840329
90 4 0.673931 0.707129 0.815924
91 1 0.851024 0.640516 0.855857
92 3 0.886856 0.754636 0.855238
93 4 0.886856 0.586301 0.834421
94 1 0.946505 0.737869 0.928547
95 3 0.888964 0.812458 0.969408
96 4 0.998313 0.755449 0.902471
97 1 0.87775 0.907575 0.906369
98 3 0.86013 0.997967 0.858239
99 5 0.822035 0.86755 0.90437
100 1 0.853427 0.91098 0.790683
101 3 0.813 0.803211 0.772557
102 4 0.908439 0.909557 0.765999
103 1 0.717056 0.861135 0.738006
104 3 0.720892 0.916772 0.671966
105 4 0.660737 0.88908 0.753565
106 1 0.736953 0.796199 0.628785
107 3 0.665079 0.714852 0.61202
108 4 0.78522 0.74737 0.618701
109 1 0.597715 0.810223 0.572242
110 3 0.638479 0.846806 0.508027
111 4 0.554085 0.863625 0.584769
112 1 0.570357 0.762207 0.46067
113 3 0.475972 0.718256 0.459556
114 4 0.602858 0.696916 0.451019
115 1 0.445536 0.793455 0.3903
116 3 0.474159 0.861897 0.332519
117 4 0.405952 0.845587 0.410034
118 1 0.433437 0.770083 0.274429
119 3 0.404393 0.653524 0.269232
120 4 0.49452 0.775164 0.259612
121 1 0.352921 0.672069 0.19283
122 3 0.368898 0.738529 0.131647
123 4 0.289099 0.673899 0.199635
124 1 0.396004 0.626035 0.0836403
125 3 0.301366 0.587114 0.0721027
126 4 0.439971 0.571465 0.0738967
ITEM: TIMESTEP
1000
ITEM: NUMBER OF ATOMS
126
ITEM: BOX BOUNDS ss ss ss
2.5659919500000004e+00 2.6288007190000002e+01
-8.4660076400000008e+00 1.1215008190000001e+01
2.2369919500000002e+00 3.4566008979999999e+01
ITEM: ATOMS id type xs ys zs
1 1 0.170929 0.151972 0.0120325
2 3 0.221758 0.246035 0.040248
3 4 0.205276 0.0878478 0.0236342
4 1 0.167525 0.258882 0.107504
5 3 0.162147 0.182623 0.164869
6 4 0.105741 0.291896 0.111224
7 1 0.24357 0.221275 0.208581
8 3 0.255934 0.333844 0.237456
9 4 0.301227 0.185931 0.2033
10 1 0.236987 0.302986 0.310421
11 3 0.258643 0.217259 0.362982
12 4 0.171954 0.324845 0.322088
13 1 0.339194 0.268888 0.398636
14 3 0.33927 0.383617 0.425319
15 4 0.394696 0.247208 0.384572
16 1 0.334496 0.358251 0.501325
17 3 0.369679 0.301643 0.562555
18 4 0.274677 0.364917 0.520901
19 1 0.466623 0.359112 0.562496
20 3 0.468725 0.47098 0.593084
21 4 0.522297 0.353471 0.539414
22 1 0.471757 0.448053 0.667594
23 3 0.474772 0.362846 0.726317
24 4 0.409904 0.464112 0.678912
25 1 0.572218 0.398063 0.753167
26 3 0.6178 0.510032 0.768058
27 4 0.624398 0.359003 0.73676
28 1 0.582589 0.521193 0.841803
29 3 0.568756 0.478706 0.911007
30 4 0.532058 0.569893 0.848176
31 1 0.671576 0.477569 0.93438
32 3 0.730794 0.379804 0.923567
33 4 0.62782 0.488753 0.968465
34 1 0.659016 0.286977 0.940013
35 3 0.583359 0.210781 0.943664
36 5 0.605857 0.318522 0.920053
37 1 0.51235 0.258242 0.894479
38 3 0.534886 0.279158 0.82544
39 4 0.470063 0.311128 0.905642
40 1 0.489628 0.180012 0.789888
41 3 0.403989 0.11821 0.79264
42 4 0.540401 0.129044 0.781065
43 1 0.364092 0.153444 0.723353
44 3 0.356904 0.219155 0.659339
45 4 0.311312 0.181121 0.745046
46 1 0.380348 0.121826 0.609296
47 3 0.304844 0.0395886 0.597346
48 4 0.437898 0.0883263 0.593922
49 1 0.258126 0.0968519 0.536482
50 3 0.280212 0.157607 0.474388
51 4 0.208141 0.135261 0.552242
52 1 0.296862 0.0533032 0.429089
53 3 0.208377 -0.00379346 0.410068
54 4 0.34442 0.00899049 0.419665
55 1 0.181833 0.0587509 0.348848
56 3 0.225949 0.0894837 0.283991
57 4 0.132658 0.106838 0.359721
58 1 0.179352 0.00769405 0.238333
59 3 0.0869006 -0.0317854 0.218585
60 4 0.210571 -0.0619119 0.232772
61 1 0.0588303 0.0691031 0.174691
62 3 -0.0144317 0.151685 0.168165
63 4 0.00631892 0.0464691 0.197379
64 1 0.282459 0.41981 0.0485648
65 3 0.286473 0.351269 0.109655
66 4 0.226137 0.46123 0.0539012
67 1 0.370064 0.397984 0.143664
68 3 0.383304 0.508816 0.173772
69 4 0.43246 0.379247 0.133654
70 1 0.338991 0.493875 0.242848
71 3 0.362314 0.407611 0.29506
72 4 0.274504 0.507499 0.25178
73 1 0.432349 0.476791 0.334901
74 3 0.457056 0.587944 0.360281
75 4 0.486382 0.449133 0.321379
76 1 0.426968 0.579166 0.433619
77 3 0.467011 0.507531 0.486483
78 4 0.368254 0.596715 0.451877
79 1 0.549276 0.572056 0.508773
80 3 0.5549 0.679114 0.542239
81 4 0.608611 0.558936 0.491158
82 1 0.540311 0.648551 0.615793
83 3 0.540317 0.564308 0.669919
84 4 0.47687 0.671704 0.62188
85 1 0.632059 0.598775 0.702152
86 3 0.690895 0.692606 0.71647
87 4 0.677985 0.546098 0.685989
88 1 0.692035 0.691238 0.793331
89 3 0.709112 0.60259 0.843614
90 4 0.648634 0.737138 0.815441
91 1 0.809757 0.627984 0.861923
92 3 0.884913 0.712252 0.870796
93 4 0.846537 0.580117 0.83021
94 1 0.878563 0.721369 0.948973
95 3 0.831908 0.824735 0.966578
96 4 0.939835 0.713444 0.938784
97 1 0.863375 0.902946 0.911112
98 3 0.89691 0.961457 0.853709
99 5 0.834201 0.834064 0.902952
100 1 0.862413 0.882027 0.797283
101 3 0.782493 0.821172 0.772252
102 4 0.904859 0.833852 0.786259
103 1 0.736344 0.920916 0.731155
104 3 0.746693 1.01432 0.684605
105 4 0.693132 0.958325 0.757749
106 1 0.732137 0.947552 0.616333
107 3 0.686032 0.843012 0.596858
108 4 0.784626 0.955063 0.595897
109 1 0.61255 0.887425 0.549226
110 3 0.613414 0.946118 0.488086
111 4 0.556121 0.923289 0.565562
112 1 0.61616 0.851155 0.435364
113 3 0.571342 0.74311 0.425484
114 4 0.678378 0.835227 0.422908
115 1 0.484657 0.780122 0.384793
116 3 0.501887 0.820808 0.314627
117 4 0.42507 0.808412 0.397933
118 1 0.488916 0.711595 0.277932
119 3 0.402057 0.645681 0.271503
120 4 0.531316 0.650757 0.26825
121 1 0.35763 0.710933 0.214017
122 3 0.386043 0.724787 0.142608
123 4 0.321208 0.775781 0.219165
124 1 0.334435 0.621563 0.114316
125 3 0.392362 0.608783 0.0562814
126 4 0.400467 0.610305 0.103742
ITEM: TIMESTEP
2000
ITEM: NUMBER OF ATOMS
126
ITEM: BOX BOUNDS ss ss ss
2.5659919500000004e+00 2.6288007190000002e+01
-8.4660076400000008e+00 1.1215008190000001e+01
2.2369919500000002e+00 3.4566008979999999e+01
ITEM: ATOMS id type xs ys zs
1 1 0.137949 0.142135 0.0324126
2 3 0.162245 0.249729 0.0603142
3 4 0.0975634 0.167445 -0.000711962
4 1 0.136975 0.235632 0.134349
5 3 0.163141 0.162588 0.193447
6 4 0.0848229 0.265071 0.151321
7 1 0.256427 0.212391 0.20848
8 3 0.290511 0.313244 0.236159
9 4 0.312279 0.180142 0.188708
10 1 0.262213 0.312146 0.30868
11 3 0.269768 0.221009 0.361688
12 4 0.207517 0.347079 0.31678
13 1 0.347129 0.27461 0.404878
14 3 0.40353 0.369772 0.424446
15 4 0.394995 0.223323 0.396027
16 1 0.367663 0.396843 0.495744
17 3 0.351177 0.345357 0.562181
18 4 0.319209 0.447797 0.504074
19 1 0.452749 0.339845 0.586614
20 3 0.486981 0.444409 0.614363
21 4 0.512025 0.310237 0.575459
22 1 0.436103 0.447477 0.6837
23 3 0.440964 0.385945 0.747504
24 4 0.378046 0.474646 0.691415
25 1 0.542916 0.415399 0.767319
26 3 0.594385 0.516241 0.780664
27 4 0.591955 0.369163 0.759074
28 1 0.553824 0.54768 0.847899
29 3 0.55471 0.491332 0.912597
30 4 0.498017 0.592696 0.85347
31 1 0.648575 0.531785 0.941651
32 3 0.686384 0.427425 0.96675
33 4 0.6135 0.543985 0.980588
34 1 0.656728 0.34768 0.912125
35 3 0.585153 0.270004 0.923926
36 5 0.62343 0.287637 0.92721
37 1 0.530999 0.271857 0.855252
38 3 0.576821 0.251197 0.789809
39 4 0.488547 0.333125 0.848347
40 1 0.546788 0.129003 0.777842
41 3 0.454705 0.0806441 0.773752
42 4 0.583768 0.0692108 0.79024
43 1 0.422112 0.12486 0.704381
44 3 0.463216 0.12557 0.635031
45 4 0.393613 0.193171 0.701768
46 1 0.417381 0.019465 0.604929
47 3 0.324189 0.0167283 0.579516
48 4 0.425379 -0.0552235 0.610951
49 1 0.320508 0.113886 0.527495
50 3 0.362791 0.121935 0.457897
51 4 0.310991 0.186274 0.529995
52 1 0.307325 0.0301531 0.422284
53 3 0.210668 -0.00443967 0.409445
54 4 0.333648 -0.0371932 0.415994
55 1 0.175344 0.0770241 0.360714
56 3 0.21442 0.102436 0.29644
57 4 0.14123 0.139057 0.374956
58 1 0.151865 0.0319282 0.25063
59 3 0.0667869 -0.0359241 0.239417
60 4 0.196462 -0.0142176 0.236668
61 1 0.0216511 0.0301957 0.181756
62 3 0.013066 -0.0105536 0.110786
63 4 0.0172837 -0.0473275 0.173347
64 1 0.186798 0.438709 0.0875947
65 3 0.225535 0.351162 0.134704
66 4 0.158158 0.502981 0.102605
67 1 0.30216 0.418343 0.165634
68 3 0.344991 0.520794 0.190124
69 4 0.351688 0.389733 0.143363
70 1 0.302279 0.525273 0.262797
71 3 0.314771 0.442547 0.318549
72 4 0.246995 0.560404 0.272274
73 1 0.407905 0.482783 0.34519
74 3 0.460149 0.583858 0.360146
75 4 0.457621 0.428224 0.333565
76 1 0.450406 0.584748 0.437908
77 3 0.455892 0.506065 0.497963
78 4 0.409879 0.638381 0.448164
79 1 0.545961 0.539715 0.525103
80 3 0.562218 0.653161 0.555139
81 4 0.599532 0.499973 0.515847
82 1 0.541213 0.632495 0.628276
83 3 0.55195 0.566697 0.686889
84 4 0.482856 0.658136 0.639159
85 1 0.652296 0.575137 0.704593
86 3 0.713679 0.669941 0.71931
87 4 0.695476 0.5272 0.690153
88 1 0.689794 0.695967 0.790113
89 3 0.721181 0.635647 0.851228
90 4 0.648509 0.742969 0.81269
91 1 0.825441 0.658479 0.843373
92 3 0.862754 0.767508 0.861361
93 4 0.873922 0.628358 0.817644
94 1 0.86612 0.758265 0.938221
95 3 0.786088 0.816809 0.960454
96 4 0.924741 0.788802 0.931288
97 1 0.790632 0.922634 0.916998
98 3 0.785705 1.01165 0.865588
99 5 0.85252 0.910308 0.901799
100 1 0.812311 0.949177 0.803074
101 3 0.743429 0.860272 0.777336
102 4 0.86837 0.920436 0.785579
103 1 0.689021 0.925051 0.724092
104 3 0.728934 0.973254 0.662201
105 4 0.637599 0.976615 0.72767
106 1 0.727049 0.870106 0.615602
107 3 0.654809 0.800059 0.584183
108 4 0.763209 0.807713 0.618289
109 1 0.607738 0.892121 0.540564
110 3 0.662856 0.874611 0.480789
111 4 0.582439 0.96268 0.536202
112 1 0.611849 0.777867 0.447757
113 3 0.514852 0.750501 0.43254
114 4 0.635494 0.71041 0.459189
115 1 0.506306 0.797463 0.361836
116 3 0.541604 0.802589 0.293708
117 4 0.485089 0.87749 0.361416
118 1 0.513877 0.691164 0.264956
119 3 0.422918 0.641791 0.251298
120 4 0.551641 0.628045 0.268208
121 1 0.397762 0.703322 0.186024
122 3 0.444689 0.716587 0.119408
123 4 0.364605 0.769578 0.185748
124 1 0.42162 0.606393 0.0888196
125 3 0.464367 0.54955 0.030032
126 4 0.476177 0.644771 0.0777447
ITEM: TIMESTEP
3000
ITEM: NUMBER OF ATOMS
126
ITEM: BOX BOUNDS ss ss ss
1.6402720760009171e+00 2.3709807537539803e+01
-9.1189304174562551e+00 1.0968053001351629e+01
2.5421764604243164e+00 3.4558679566525257e+01
ITEM: ATOMS id type xs ys zs
1 1 0.169921 0.161023 0.0396668
2 3 0.216691 0.262314 0.0584606
3 4 0.103054 0.151109 0.0306808
4 1 0.166529 0.282344 0.127711
5 3 0.182829 0.204887 0.184794
6 4 0.106147 0.314942 0.138856
7 1 0.288337 0.246711 0.204962
8 3 0.34523 0.338719 0.231471
9 4 0.339587 0.212111 0.184077
10 1 0.304546 0.339574 0.3064
11 3 0.311665 0.261301 0.366178
12 4 0.249172 0.382907 0.315185
13 1 0.409175 0.298263 0.39653
14 3 0.453418 0.40363 0.416517
15 4 0.471473 0.270924 0.378492
16 1 0.420579 0.417402 0.488486
17 3 0.4268 0.35723 0.551656
18 4 0.362132 0.457343 0.49757
19 1 0.534851 0.36874 0.570691
20 3 0.597732 0.464415 0.584136
21 4 0.588491 0.330235 0.550749
22 1 0.558898 0.489338 0.656793
23 3 0.541609 0.440247 0.727039
24 4 0.509073 0.544544 0.658517
25 1 0.645871 0.442912 0.753609
26 3 0.692528 0.548651 0.775976
27 4 0.705189 0.398144 0.746304
28 1 0.657755 0.553367 0.852359
29 3 0.660852 0.479227 0.912825
30 4 0.598056 0.587103 0.859811
31 1 0.755778 0.527775 0.947018
32 3 0.802239 0.426711 0.964643
33 4 0.70659 0.520584 0.982234
34 1 0.801383 0.36937 0.892302
35 3 0.745615 0.270956 0.908372
36 5 0.862536 0.404929 0.894671
37 1 0.656779 0.288449 0.861285
38 3 0.687102 0.278742 0.789996
39 4 0.60547 0.34256 0.859427
40 1 0.647089 0.170363 0.76922
41 3 0.544877 0.126089 0.766534
42 4 0.674187 0.100777 0.780949
43 1 0.511933 0.176478 0.698553
44 3 0.539804 0.214011 0.630595
45 4 0.471952 0.235885 0.707606
46 1 0.524562 0.114178 0.588994
47 3 0.42182 0.0735649 0.578611
48 4 0.562334 0.0474995 0.583303
49 1 0.391226 0.154783 0.521592
50 3 0.431863 0.166292 0.452187
51 4 0.361386 0.221582 0.529657
52 1 0.366568 0.0872307 0.413347
53 3 0.265588 0.0486163 0.408083
54 4 0.395869 0.0190217 0.405915
55 1 0.216499 0.132136 0.364373
56 3 0.239303 0.168246 0.292833
57 4 0.189418 0.196282 0.37684
58 1 0.194368 0.0635203 0.256506
59 3 0.111847 -0.0128773 0.269274
60 4 0.248726 0.018207 0.243522
61 1 0.0442709 0.0192407 0.20644
62 3 -0.0614807 0.000868033 0.191796
63 4 -0.00714005 0.0682552 0.197207
64 1 0.243658 0.491913 0.0802719
65 3 0.269857 0.39956 0.122059
66 4 0.17911 0.505647 0.0959498
67 1 0.369837 0.439826 0.151301
68 3 0.430762 0.533567 0.172541
69 4 0.413344 0.400076 0.129817
70 1 0.398042 0.536805 0.247508
71 3 0.407322 0.458479 0.304844
72 4 0.34471 0.580163 0.263467
73 1 0.510787 0.486193 0.33249
74 3 0.56394 0.58929 0.352258
75 4 0.560629 0.442651 0.316053
76 1 0.535673 0.590512 0.427972
77 3 0.545141 0.505543 0.479927
78 4 0.483914 0.632798 0.440915
79 1 0.649748 0.533316 0.507367
80 3 0.70655 0.63372 0.521033
81 4 0.706978 0.505732 0.482545
82 1 0.693892 0.650129 0.597102
83 3 0.680327 0.57932 0.6578
84 4 0.646345 0.7024 0.600627
85 1 0.778309 0.611488 0.694865
86 3 0.811908 0.715807 0.717009
87 4 0.840462 0.574056 0.689739
88 1 0.779263 0.719056 0.791831
89 3 0.775246 0.657926 0.857959
90 4 0.719529 0.755924 0.796434
91 1 0.883354 0.678508 0.88045
92 3 0.929631 0.772376 0.911931
93 4 0.942133 0.640741 0.875056
94 1 0.875796 0.779197 0.980425
95 3 0.805726 0.86738 0.982631
96 4 0.937895 0.79043 0.992595
97 1 0.834914 0.937682 0.923122
98 3 0.909433 0.980272 0.87511
99 5 0.796148 0.958724 0.886564
100 1 0.867079 0.931923 0.809495
101 3 0.76715 0.910518 0.784393
102 4 0.910459 0.875631 0.798366
103 1 0.767548 0.9721 0.716582
104 3 0.823975 1.00619 0.657203
105 4 0.739487 1.03917 0.731535
106 1 0.786961 0.920159 0.606394
107 3 0.718381 0.836789 0.576129
108 4 0.845105 0.878156 0.599207
109 1 0.645604 0.908727 0.538953
110 3 0.70913 0.913 0.480511
111 4 0.59718 0.964258 0.536328
112 1 0.676273 0.808252 0.441927
113 3 0.571632 0.78037 0.423535
114 4 0.708752 0.743669 0.447792
115 1 0.574606 0.801086 0.347037
116 3 0.634041 0.800493 0.282896
117 4 0.546859 0.865235 0.340305
118 1 0.627253 0.684197 0.263208
119 3 0.543412 0.611705 0.240637
120 4 0.663604 0.62189 0.279341
121 1 0.525709 0.653307 0.16974
122 3 0.59772 0.670665 0.113091
123 4 0.48188 0.708911 0.159827
124 1 0.595506 0.549343 0.0863742
125 3 0.585968 0.536257 0.0118031
126 4 0.563027 0.552244 0.0458096
ITEM: TIMESTEP
4000
ITEM: NUMBER OF ATOMS
126
ITEM: BOX BOUNDS ss ss ss
-1.3320834709716517e-01 2.2910106280611330e+01
-8.9584084686731753e+00 1.1785946791366850e+01
3.7034254636806376e+00 3.4648769730850589e+01
ITEM: ATOMS id type xs ys zs
1 1 0.175504 0.185928 0.0126604
2 3 0.242057 0.27572 0.0308712
3 4 0.208519 0.121317 0.0153806
4 1 0.238089 0.272016 0.110828
5 3 0.238844 0.190813 0.167836
6 4 0.201661 0.328206 0.133664
7 1 0.337198 0.215313 0.199363
8 3 0.406462 0.29768 0.217231
9 4 0.381348 0.166342 0.178771
10 1 0.370223 0.332331 0.28946
11 3 0.372711 0.266726 0.353129
12 4 0.323565 0.379624 0.297625
13 1 0.47173 0.288476 0.381865
14 3 0.524738 0.385582 0.403958
15 4 0.521654 0.244029 0.370892
16 1 0.482761 0.400333 0.477678
17 3 0.500802 0.348235 0.544157
18 4 0.428481 0.429359 0.493615
19 1 0.605732 0.362489 0.556275
20 3 0.654702 0.464525 0.571369
21 4 0.649919 0.315478 0.539769
22 1 0.629843 0.472784 0.651908
23 3 0.631451 0.402559 0.712506
24 4 0.585525 0.527506 0.657635
25 1 0.729394 0.43217 0.74308
26 3 0.740042 0.53769 0.77334
27 4 0.790848 0.415475 0.733479
28 1 0.692415 0.526255 0.843152
29 3 0.713439 0.469786 0.90893
30 4 0.628545 0.543678 0.853908
31 1 0.811153 0.517664 0.924053
32 3 0.859171 0.413511 0.939291
33 4 0.776285 0.510522 0.9633
34 1 0.874749 0.378852 0.863395
35 3 0.838277 0.269496 0.858268
36 5 0.933531 0.3468 0.849194
37 1 0.752535 0.293289 0.809566
38 3 0.763189 0.308544 0.733583
39 4 0.691222 0.31915 0.819274
40 1 0.760017 0.194657 0.706092
41 3 0.703718 0.100672 0.714236
42 4 0.823042 0.177387 0.698671
43 1 0.627353 0.121891 0.658512
44 3 0.644134 0.154516 0.582239
45 4 0.573481 0.149475 0.678711
46 1 0.595909 0.065313 0.544543
47 3 0.506524 0.00885914 0.542333
48 4 0.629964 0.00248971 0.533806
49 1 0.443789 0.090252 0.512009
50 3 0.456797 0.137313 0.439981
51 4 0.415167 0.149844 0.531647
52 1 0.376638 0.0753555 0.401891
53 3 0.274006 0.0573108 0.403038
54 4 0.39621 0.00970613 0.383123
55 1 0.241198 0.159099 0.364919
56 3 0.267339 0.186149 0.290012
57 4 0.226012 0.225273 0.384007
58 1 0.188317 0.118597 0.251815
59 3 0.0885506 0.081101 0.250658
60 4 0.21217 0.0613952 0.227418
61 1 0.0352591 0.173453 0.217917
62 3 -0.0109167 0.153069 0.151154
63 4 0.0284998 0.153946 0.16925
64 1 0.37957 0.364165 0.030867
65 3 0.37392 0.319771 0.102883
66 4 0.368062 0.435787 0.0284281
67 1 0.47479 0.349019 0.129244
68 3 0.533315 0.438619 0.143288
69 4 0.520223 0.298326 0.123359
70 1 0.499744 0.465215 0.218718
71 3 0.513445 0.384201 0.274802
72 4 0.448684 0.50781 0.233046
73 1 0.592591 0.433803 0.315939
74 3 0.62293 0.546753 0.327131
75 4 0.644438 0.391408 0.309447
76 1 0.590329 0.555522 0.404747
77 3 0.596332 0.505191 0.475154
78 4 0.535878 0.594078 0.411586
79 1 0.696391 0.535935 0.495246
80 3 0.75388 0.634028 0.506261
81 4 0.74878 0.489119 0.486212
82 1 0.730054 0.659674 0.582295
83 3 0.72639 0.600901 0.646958
84 4 0.675853 0.700879 0.591593
85 1 0.827427 0.604594 0.674834
86 3 0.847167 0.710715 0.699644
87 4 0.88509 0.569124 0.661269
88 1 0.847121 0.702873 0.777867
89 3 0.870577 0.632504 0.835267
90 4 0.786977 0.725389 0.793423
91 1 0.951868 0.70051 0.867684
92 3 0.953543 0.804097 0.902329
93 4 1.01402 0.698544 0.856112
94 1 0.899942 0.776008 0.970485
95 3 0.816482 0.843512 0.983627
96 4 0.944695 0.825345 0.98435
97 1 0.770563 0.837495 0.910808
98 3 0.798032 0.937091 0.877507
99 5 0.745209 0.88444 0.946243
100 1 0.802735 0.896717 0.79824
101 3 0.74099 0.825996 0.758581
102 4 0.866669 0.88612 0.786979
103 1 0.710987 0.896355 0.697567
104 3 0.746441 0.963686 0.64036
105 4 0.652738 0.927013 0.708015
106 1 0.785683 0.874026 0.591494
107 3 0.71993 0.819164 0.547357
108 4 0.839233 0.832477 0.584418
109 1 0.708637 0.900035 0.486681
110 3 0.790174 0.870733 0.441707
111 4 0.687981 0.96448 0.476242
112 1 0.755357 0.76612 0.413264
113 3 0.678087 0.696668 0.391898
114 4 0.788986 0.716563 0.439282
115 1 0.655809 0.741744 0.318375
116 3 0.716546 0.740814 0.251882
117 4 0.616534 0.795602 0.308248
118 1 0.703075 0.625084 0.232895
119 3 0.617911 0.559076 0.212635
120 4 0.734772 0.562385 0.249247
121 1 0.592547 0.609832 0.14216
122 3 0.653156 0.604899 0.0763078
123 4 0.56277 0.673689 0.131626
124 1 0.640673 0.48931 0.0545896
125 3 0.627317 0.382799 0.0304702
126 4 0.598511 0.50386 0.0158811
ITEM: TIMESTEP
5000
ITEM: NUMBER OF ATOMS
126
ITEM: BOX BOUNDS ss ss ss
-5.2051620986519309e-01 2.2317327129172316e+01
-8.7209149079322792e+00 1.1335058959745886e+01
3.5912044087111403e+00 3.4102833948702063e+01
ITEM: ATOMS id type xs ys zs
1 1 0.1681 0.165538 0.0472969
2 3 0.272412 0.191778 0.0457278
3 4 0.186978 0.0929704 0.0380094
4 1 0.282231 0.266303 0.111729
5 3 0.258092 0.230925 0.184784
6 4 0.268378 0.345177 0.117517
7 1 0.357653 0.206841 0.214305
8 3 0.417687 0.301627 0.232293
9 4 0.399593 0.145619 0.211054
10 1 0.38629 0.318527 0.310875
11 3 0.401027 0.264549 0.376726
12 4 0.328904 0.352852 0.325996
13 1 0.506923 0.288674 0.393204
14 3 0.548073 0.402945 0.402048
15 4 0.561114 0.257977 0.372457
16 1 0.520033 0.416228 0.483837
17 3 0.536729 0.365473 0.555227
18 4 0.470482 0.462282 0.49709
19 1 0.644464 0.376649 0.562606
20 3 0.678622 0.479782 0.591881
21 4 0.698308 0.342831 0.541614
22 1 0.664111 0.454526 0.672019
23 3 0.707937 0.378583 0.721818
24 4 0.60605 0.459948 0.696428
25 1 0.810605 0.422561 0.725712
26 3 0.841045 0.529857 0.751972
27 4 0.865587 0.409574 0.694381
28 1 0.814307 0.510053 0.83269
29 3 0.858511 0.445711 0.890575
30 4 0.756118 0.525155 0.852175
31 1 0.957033 0.49707 0.898559
32 3 1.01391 0.397273 0.90273
33 4 0.940182 0.504379 0.946319
34 1 0.984253 0.342316 0.832532
35 3 0.933374 0.247802 0.853815
36 5 0.999716 0.273177 0.853202
37 1 0.842435 0.263614 0.811823
38 3 0.830464 0.249697 0.733249
39 4 0.78196 0.295425 0.825227
40 1 0.805881 0.128094 0.726888
41 3 0.717129 0.0701441 0.748175
42 4 0.843167 0.0645875 0.723524
43 1 0.645663 0.119118 0.694897
44 3 0.661374 0.150319 0.618761
45 4 0.617302 0.180197 0.717773
46 1 0.581303 0.0873285 0.58031
47 3 0.492095 0.0285275 0.589111
48 4 0.620059 0.0366725 0.5566
49 1 0.422212 0.101432 0.548835
50 3 0.409107 0.175061 0.48795
51 4 0.387663 0.138037 0.586352
52 1 0.379919 0.0982176 0.428113
53 3 0.277224 0.0689835 0.43478
54 4 0.400697 0.0403568 0.40002
55 1 0.234059 0.171544 0.399875
56 3 0.257182 0.208667 0.326716
57 4 0.218959 0.230904 0.424673
58 1 0.172506 0.166211 0.284326
59 3 0.0869442 0.232171 0.28504
60 4 0.141793 0.100294 0.271235
61 1 0.11598 0.328323 0.23707
62 3 0.0963965 0.43738 0.261524
63 4 0.0958725 0.315105 0.187165
64 1 0.442721 0.33165 0.0320075
65 3 0.409577 0.318908 0.106833
66 4 0.435093 0.262291 0.0125852
67 1 0.508643 0.331773 0.145064
68 3 0.554283 0.43813 0.148733
69 4 0.559227 0.283624 0.154339
70 1 0.516681 0.475745 0.223781
71 3 0.52988 0.40585 0.288525
72 4 0.462427 0.516577 0.226451
73 1 0.618511 0.455073 0.317973
74 3 0.668673 0.559819 0.331408
75 4 0.673596 0.41495 0.304883
76 1 0.649797 0.577568 0.409746
77 3 0.653363 0.513929 0.474902
78 4 0.597534 0.619155 0.422771
79 1 0.757239 0.542933 0.499745
80 3 0.774103 0.650375 0.528079
81 4 0.819766 0.524723 0.491122
82 1 0.719686 0.646973 0.599518
83 3 0.739524 0.590956 0.668199
84 4 0.653004 0.65878 0.607483
85 1 0.839131 0.63837 0.685925
86 3 0.846296 0.749269 0.716718
87 4 0.901969 0.625576 0.673046
88 1 0.813063 0.724325 0.793866
89 3 0.868453 0.655231 0.84133
90 4 0.748967 0.731001 0.811286
91 1 0.917496 0.73822 0.889714
92 3 0.915394 0.851184 0.919762
93 4 0.981337 0.726756 0.880875
94 1 0.867957 0.833346 0.991712
95 3 0.787659 0.902601 1.00077
96 4 0.921987 0.881683 0.996731
97 1 0.738578 0.888188 0.929569
98 3 0.744133 0.979893 0.87851
99 5 0.720241 0.892226 0.881691
100 1 0.765784 0.917784 0.809863
101 3 0.699579 0.838013 0.781823
102 4 0.827395 0.899777 0.791966
103 1 0.650953 0.897846 0.722521
104 3 0.656388 0.978192 0.66567
105 4 0.59059 0.917218 0.737473
106 1 0.692551 0.901775 0.604083
107 3 0.660306 0.801252 0.572583
108 4 0.760493 0.905045 0.595919
109 1 0.619136 0.846012 0.501659
110 3 0.654116 0.900886 0.437429
111 4 0.556931 0.863764 0.490591
112 1 0.728694 0.820256 0.409856
113 3 0.656162 0.747943 0.374295
114 4 0.784567 0.778753 0.416354
115 1 0.668305 0.776226 0.294991
116 3 0.742064 0.764942 0.240639
117 4 0.636761 0.837715 0.277635
118 1 0.739047 0.638929 0.231122
119 3 0.668659 0.563133 0.205616
120 4 0.778252 0.59143 0.258648
121 1 0.689546 0.569947 0.124356
122 3 0.778156 0.510469 0.106277
123 4 0.687082 0.614192 0.0862875
124 1 0.746347 0.395342 0.0930645
125 3 0.701633 0.323991 0.0391185
126 4 0.77021 0.40617 0.0458451
ITEM: TIMESTEP
6000
ITEM: NUMBER OF ATOMS
126
ITEM: BOX BOUNDS ss ss ss
-6.9088889449964641e-01 2.3389341609356386e+01
-7.8340940676183015e+00 9.8586073301343280e+00
3.9459948038424306e+00 3.3882195773913097e+01
ITEM: ATOMS id type xs ys zs
1 1 0.226975 0.23244 0.00913609
2 3 0.261849 0.33741 0.04758
3 4 0.166881 0.197069 0.00815862
4 1 0.232077 0.303585 0.124533
5 3 0.228392 0.208749 0.185233
6 4 0.178905 0.341455 0.139083
7 1 0.325154 0.209403 0.20858
8 3 0.40278 0.293214 0.223975
9 4 0.359587 0.141096 0.189835
10 1 0.384674 0.318048 0.304139
11 3 0.384464 0.2484 0.369563
12 4 0.356956 0.38826 0.322047
13 1 0.487538 0.229604 0.383349
14 3 0.556804 0.327379 0.395447
15 4 0.532838 0.175494 0.363363
16 1 0.527878 0.375507 0.469293
17 3 0.543374 0.295014 0.533581
18 4 0.488863 0.431091 0.493151
19 1 0.642421 0.336074 0.54865
20 3 0.689812 0.449966 0.572286
21 4 0.695184 0.294672 0.529595
22 1 0.650744 0.455021 0.652078
23 3 0.682461 0.376504 0.713249
24 4 0.596407 0.496381 0.669344
25 1 0.77568 0.438974 0.724562
26 3 0.799894 0.564313 0.75052
27 4 0.828594 0.422209 0.698364
28 1 0.779154 0.542926 0.832664
29 3 0.826435 0.466292 0.88679
30 4 0.72114 0.550916 0.854726
31 1 0.914698 0.542298 0.899744
32 3 0.962611 0.428243 0.918895
33 4 0.901855 0.556293 0.947522
34 1 0.963162 0.370936 0.840043
35 3 0.928056 0.241833 0.858965
36 5 0.95045 0.404471 0.793147
37 1 0.84097 0.25417 0.814917
38 3 0.811565 0.296786 0.742707
39 4 0.788082 0.260516 0.843028
40 1 0.800545 0.168977 0.705983
41 3 0.725519 0.0874074 0.722145
42 4 0.833626 0.106582 0.685236
43 1 0.647652 0.157692 0.684295
44 3 0.636579 0.202034 0.606855
45 4 0.610732 0.206776 0.710951
46 1 0.577644 0.0925871 0.578121
47 3 0.486599 0.0582913 0.593294
48 4 0.591988 0.0131038 0.565242
49 1 0.434758 0.165225 0.553943
50 3 0.423008 0.207431 0.475617
51 4 0.414038 0.232304 0.577577
52 1 0.351848 0.10645 0.455055
53 3 0.255163 0.129994 0.471808
54 4 0.353624 0.0262302 0.436267
55 1 0.235934 0.226539 0.409091
56 3 0.250688 0.248593 0.331903
57 4 0.234374 0.306904 0.426596
58 1 0.155684 0.220266 0.303604
59 3 0.0603412 0.26248 0.317738
60 4 0.150079 0.139131 0.283768
61 1 0.0506256 0.360665 0.257959
62 3 0.0839003 0.485751 0.242924
63 4 -0.00184106 0.315884 0.260828
64 1 0.459681 0.210033 0.0340545
65 3 0.428017 0.216559 0.107997
66 4 0.504026 0.250774 0.00660105
67 1 0.51759 0.233497 0.148414
68 3 0.565345 0.355724 0.143794
69 4 0.560659 0.187611 0.169801
70 1 0.512887 0.425753 0.202153
71 3 0.508876 0.387151 0.277009
72 4 0.462248 0.477164 0.198333
73 1 0.601807 0.410909 0.307914
74 3 0.61861 0.54702 0.314825
75 4 0.654692 0.375667 0.293185
76 1 0.629355 0.552231 0.397068
77 3 0.650126 0.494691 0.469284
78 4 0.574782 0.591281 0.408066
79 1 0.743943 0.551233 0.481269
80 3 0.758548 0.683923 0.499543
81 4 0.801221 0.518393 0.467691
82 1 0.724972 0.679947 0.57793
83 3 0.739072 0.622947 0.648382
84 4 0.661754 0.695171 0.586477
85 1 0.82556 0.679728 0.675291
86 3 0.816915 0.808691 0.695089
87 4 0.887525 0.659489 0.667468
88 1 0.795937 0.802951 0.778892
89 3 0.834601 0.744599 0.844991
90 4 0.734023 0.796376 0.790202
91 1 0.89189 0.844279 0.874725
92 3 0.849059 0.949125 0.913849
93 4 0.944899 0.88683 0.865339
94 1 0.799866 0.883673 0.974433
95 3 0.705225 0.927324 0.965231
96 4 0.8186 0.965786 0.986347
97 1 0.669335 0.841011 0.906633
98 3 0.61879 0.944935 0.880525
99 5 0.722248 0.831908 0.9352
100 1 0.66036 0.965484 0.805326
101 3 0.658933 0.863015 0.753775
102 4 0.710375 1.01555 0.790631
103 1 0.570049 0.887885 0.714658
104 3 0.531369 0.987388 0.670016
105 4 0.51051 0.856441 0.730857
106 1 0.589898 0.967935 0.601828
107 3 0.620213 0.854111 0.568787
108 4 0.636797 1.02091 0.592786
109 1 0.560172 0.849721 0.497896
110 3 0.616573 0.922263 0.450575
111 4 0.50575 0.845885 0.473857
112 1 0.683965 0.831867 0.422076
113 3 0.664874 0.720517 0.377883
114 4 0.736647 0.796861 0.441222
115 1 0.631283 0.777374 0.307894
116 3 0.713101 0.785074 0.262401
117 4 0.587386 0.821157 0.286041
118 1 0.715011 0.648265 0.232387
119 3 0.652206 0.547123 0.20997
120 4 0.751622 0.594195 0.263921
121 1 0.662416 0.547036 0.130481
122 3 0.737854 0.529906 0.0802484
123 4 0.626577 0.597142 0.0986233
124 1 0.756631 0.392802 0.0912288
125 3 0.817792 0.291439 0.116454
126 4 0.767333 0.313871 0.113434
ITEM: TIMESTEP
7000
ITEM: NUMBER OF ATOMS
126
ITEM: BOX BOUNDS ss ss ss