LAMMPS protain data file

         108  atoms
         132  bonds
           0  angles
           0  dihedrals
           0  impropers

           5  atom types
           5  bond types
           0  angle types
           0  dihedral types
           0  improper types

-200.0	200.0	xlo xhi
-200.0	200.0	ylo yhi
-200.0	200.0	zlo zhi

Masses

           1	27.0
           2	14.0
           3	28.0
           4	60.0
           5	60.0

Atoms

           1	1	1	1	0.0	4.15700006	0.926	0.94499999
           2	1	1	3	0.0	3.86800003	2.27900004	2.86400008
           3	1	1	5	0.0	4.9473666	1.76881734	-0.07312557
           4	1	2	1	0.0	2.73000002	4.33699989	1.61699998
           5	1	2	3	0.0	1.90199995	5.34200001	-0.396
           6	1	2	5	0.0	1.3944084	3.62756729	1.90768952
           7	1	3	1	0.0	0.79100001	7.51399994	1.05200005
           8	1	3	3	0.0	1.52499998	8.80300045	2.88000011
           9	1	3	4	0.0	-0.72899997	7.4380002	1.33599997
          10	1	4	1	0.0	2.14299989	11.05500031	1.34599996
          11	1	4	3	0.0	1.21200001	12.20199966	-0.52600002
          12	1	4	4	0.0	3.62299991	11.31999969	0.96499997
          13	1	5	1	0.0	0.16	14.2840004	1.04799998
          14	1	5	3	0.0	0.991	15.5710001	2.88800001
          15	1	5	4	0.0	-1.35000002	14.44799995	1.36099994
          16	1	6	1	0.0	2.76200008	17.08200073	1.38
          17	1	6	3	0.0	3.98000002	18.96199989	0.53899997
          18	1	6	4	0.0	4.11399984	16.42200089	1.64699996
          19	2	7	1	0.0	4.15700006	0.926	5.73400021
          20	2	7	3	0.0	3.86800003	2.27900004	7.65299988
          21	2	7	5	0.0	4.94736637	1.76881738	4.71587449
          22	2	8	1	0.0	2.73000002	4.33699989	6.40600014
          23	2	8	3	0.0	1.90199995	5.34200001	4.39300013
          24	2	8	5	0.0	1.39440838	3.62756729	6.69668959
          25	2	9	1	0.0	0.79100001	7.51399994	5.84100008
          26	2	9	3	0.0	1.52499998	8.80300045	7.66900015
          27	2	9	4	0.0	-0.72899997	7.4380002	6.125
          28	2	10	1	0.0	2.14299989	11.05500031	6.13500023
          29	2	10	3	0.0	1.21200001	12.20199966	4.26300001
          30	2	10	4	0.0	3.62299991	11.31999969	5.75400019
          31	2	11	1	0.0	0.16	14.2840004	5.83699989
          32	2	11	3	0.0	0.991	15.5710001	7.67700005
          33	2	11	4	0.0	-1.35000002	14.44799995	6.1500001
          34	2	12	1	0.0	2.76200008	17.08200073	6.16900015
          35	2	12	3	0.0	3.98000002	18.96199989	5.32800007
          36	2	12	4	0.0	4.11399984	16.42200089	6.43599987
          37	3	13	1	0.0	4.15700006	0.926	10.52299976
          38	3	13	3	0.0	3.86800003	2.27900004	12.44200039
          39	3	13	5	0.0	4.94736691	1.76881738	9.50487447
          40	3	14	1	0.0	2.73000002	4.33699989	11.19499969
          41	3	14	3	0.0	1.90199995	5.34200001	9.18200016
          42	3	14	5	0.0	1.39440848	3.62756721	11.48568942
          43	3	15	1	0.0	0.79100001	7.51399994	10.63000011
          44	3	15	3	0.0	1.52499998	8.80300045	12.45800018
          45	3	15	4	0.0	-0.72899997	7.4380002	10.91399956
          46	3	16	1	0.0	2.14299989	11.05500031	10.92399979
          47	3	16	3	0.0	1.21200001	12.20199966	9.05200005
          48	3	16	4	0.0	3.62299991	11.31999969	10.54300022
          49	3	17	1	0.0	0.16	14.2840004	10.6260004
          50	3	17	3	0.0	0.991	15.5710001	12.4659996
          51	3	17	4	0.0	-1.35000002	14.44799995	10.93900013
          52	3	18	1	0.0	2.76200008	17.08200073	10.95800018
          53	3	18	3	0.0	3.98000002	18.96199989	10.11699963
          54	3	18	4	0.0	4.11399984	16.42200089	11.22500038
          55	4	19	1	0.0	12.5369997	19.64100075	3.8440001
          56	4	19	3	0.0	12.24800014	18.28800011	1.92499995
          57	4	19	5	0.0	13.32736552	18.79818335	4.86212618
          58	4	20	1	0.0	11.10999966	16.22999954	3.17199993
          59	4	20	3	0.0	10.28199959	15.22500038	5.18499994
          60	4	20	5	0.0	9.77440814	16.93943208	2.88130977
          61	4	21	1	0.0	9.17099953	13.05300045	3.73699999
          62	4	21	3	0.0	9.90499973	11.76399994	1.90900004
          63	4	21	4	0.0	7.65100002	13.12899971	3.45300007
          64	4	22	1	0.0	10.52299976	9.51200008	3.44300008
          65	4	22	3	0.0	9.59200001	8.36499977	5.31500006
          66	4	22	4	0.0	12.00300026	9.24699974	3.82399988
          67	4	23	1	0.0	8.53999996	6.28299999	3.74099994
          68	4	23	3	0.0	9.37100029	4.99599981	1.90100002
          69	4	23	4	0.0	7.03000021	6.11899996	3.42799997
          70	4	24	1	0.0	11.1420002	3.4849999	3.40899992
          71	4	24	3	0.0	12.35999966	1.60500002	4.25
          72	4	24	4	0.0	12.49400043	4.14499998	3.14199996
          73	5	25	1	0.0	12.5369997	19.64100075	8.63300037
          74	5	25	3	0.0	12.24800014	18.28800011	6.71400023
          75	5	25	5	0.0	13.3273658	18.79818309	9.65112602
          76	5	26	1	0.0	11.10999966	16.22999954	7.96099997
          77	5	26	3	0.0	10.28199959	15.22500038	9.97399998
          78	5	26	5	0.0	9.77440817	16.93943212	7.67030977
          79	5	27	1	0.0	9.17099953	13.05300045	8.52600002
          80	5	27	3	0.0	9.90499973	11.76399994	6.69799995
          81	5	27	4	0.0	7.65100002	13.12899971	8.24199963
          82	5	28	1	0.0	10.52299976	9.51200008	8.23200035
          83	5	28	3	0.0	9.59200001	8.36499977	10.10400009
          84	5	28	4	0.0	12.00300026	9.24699974	8.61299992
          85	5	29	1	0.0	8.53999996	6.28299999	8.52999973
          86	5	29	3	0.0	9.37100029	4.99599981	6.69000006
          87	5	29	4	0.0	7.03000021	6.11899996	8.21700001
          88	5	30	1	0.0	11.1420002	3.4849999	8.19799995
          89	5	30	3	0.0	12.35999966	1.60500002	9.03899956
          90	5	30	4	0.0	12.49400043	4.14499998	7.93100023
          91	6	31	1	0.0	12.5369997	19.64100075	13.42199993
          92	6	31	3	0.0	12.24800014	18.28800011	11.50300026
          93	6	31	5	0.0	13.32736522	18.79818329	14.44012619
          94	6	32	1	0.0	11.10999966	16.22999954	12.75
          95	6	32	3	0.0	10.28199959	15.22500038	14.76299953
          96	6	32	5	0.0	9.77440811	16.939432	12.45930979
          97	6	33	1	0.0	9.17099953	13.05300045	13.31499958
          98	6	33	3	0.0	9.90499973	11.76399994	11.48700047
          99	6	33	4	0.0	7.65100002	13.12899971	13.03100014
         100	6	34	1	0.0	10.52299976	9.51200008	13.02099991
         101	6	34	3	0.0	9.59200001	8.36499977	14.89299965
         102	6	34	4	0.0	12.00300026	9.24699974	13.40200043
         103	6	35	1	0.0	8.53999996	6.28299999	13.31900024
         104	6	35	3	0.0	9.37100029	4.99599981	11.47900009
         105	6	35	4	0.0	7.03000021	6.11899996	13.00599957
         106	6	36	1	0.0	11.1420002	3.4849999	12.98700047
         107	6	36	3	0.0	12.35999966	1.60500002	13.82800007
         108	6	36	4	0.0	12.49400043	4.14499998	12.72000027

Bond Coeffs

           1	200.0	3.77
           2	200.0	2.41
           3	200.0	2.50
           4	200.0	1.54
           5	200.0	1.54
Bonds

           1	2	1	2
           2	5	1	3
           3	1	1	4
           4	3	2	4
           5	2	4	5
           6	5	4	6
           7	1	4	7
           8	3	5	7
           9	2	7	8
          10	4	7	9
          11	1	7	10
          12	3	8	10
          13	2	10	11
          14	4	10	12
          15	1	10	13
          16	3	11	13
          17	2	13	14
          18	4	13	15
          19	1	13	16
          20	3	14	16
          21	2	16	17
          22	4	16	18
          23	2	19	20
          24	5	19	21
          25	1	19	22
          26	3	20	22
          27	2	22	23
          28	5	22	24
          29	1	22	25
          30	3	23	25
          31	2	25	26
          32	4	25	27
          33	1	25	28
          34	3	26	28
          35	2	28	29
          36	4	28	30
          37	1	28	31
          38	3	29	31
          39	2	31	32
          40	4	31	33
          41	1	31	34
          42	3	32	34
          43	2	34	35
          44	4	34	36
          45	2	37	38
          46	5	37	39
          47	1	37	40
          48	3	38	40
          49	2	40	41
          50	5	40	42
          51	1	40	43
          52	3	41	43
          53	2	43	44
          54	4	43	45
          55	1	43	46
          56	3	44	46
          57	2	46	47
          58	4	46	48
          59	1	46	49
          60	3	47	49
          61	2	49	50
          62	4	49	51
          63	1	49	52
          64	3	50	52
          65	2	52	53
          66	4	52	54
          67	2	55	56
          68	5	55	57
          69	1	55	58
          70	3	56	58
          71	2	58	59
          72	5	58	60
          73	1	58	61
          74	3	59	61
          75	2	61	62
          76	4	61	63
          77	1	61	64
          78	3	62	64
          79	2	64	65
          80	4	64	66
          81	1	64	67
          82	3	65	67
          83	2	67	68
          84	4	67	69
          85	1	67	70
          86	3	68	70
          87	2	70	71
          88	4	70	72
          89	2	73	74
          90	5	73	75
          91	1	73	76
          92	3	74	76
          93	2	76	77
          94	5	76	78
          95	1	76	79
          96	3	77	79
          97	2	79	80
          98	4	79	81
          99	1	79	82
         100	3	80	82
         101	2	82	83
         102	4	82	84
         103	1	82	85
         104	3	83	85
         105	2	85	86
         106	4	85	87
         107	1	85	88
         108	3	86	88
         109	2	88	89
         110	4	88	90
         111	2	91	92
         112	5	91	93
         113	1	91	94
         114	3	92	94
         115	2	94	95
         116	5	94	96
         117	1	94	97
         118	3	95	97
         119	2	97	98
         120	4	97	99
         121	1	97	100
         122	3	98	100
         123	2	100	101
         124	4	100	102
         125	1	100	103
         126	3	101	103
         127	2	103	104
         128	4	103	105
         129	1	103	106
         130	3	104	106
         131	2	106	107
         132	4	106	108

