ITEM: TIMESTEP
0
ITEM: NUMBER OF ATOMS
108
ITEM: BOX BOUNDS ss ss ss
-1.3900080200000000e+00 1.3367373800000001e+01
8.8599200000000000e-01 1.9681008750000000e+01
-5.6600802000000006e-01 1.4933007650000000e+01
ITEM: ATOMS id type xs ys zs
1 1 0.37588 0.00212865 0.0974906
2 3 0.356297 0.0741158 0.221305
3 5 0.429438 0.0469712 0.0318009
4 1 0.279183 0.183613 0.140848
5 3 0.223075 0.237085 0.010969
6 5 0.18868 0.145867 0.159604
7 1 0.147791 0.352647 0.104394
8 3 0.197529 0.421229 0.222337
9 4 0.0447917 0.348603 0.122718
10 1 0.239406 0.541048 0.123363
11 3 0.176319 0.602075 0.00258133
12 4 0.339695 0.555148 0.098781
13 1 0.105033 0.712849 0.104136
14 3 0.161344 0.781325 0.222853
15 4 0.00271105 0.721575 0.124331
16 1 0.281351 0.861718 0.125557
17 3 0.363886 0.961745 0.0712954
18 4 0.372966 0.826603 0.142784
19 1 0.37588 0.00212865 0.406478
20 3 0.356297 0.0741158 0.530292
21 5 0.429438 0.0469712 0.340788
22 1 0.279183 0.183613 0.449836
23 3 0.223075 0.237085 0.319956
24 5 0.18868 0.145867 0.468591
25 1 0.147791 0.352647 0.413382
26 3 0.197529 0.421229 0.531325
27 4 0.0447917 0.348603 0.431705
28 1 0.239406 0.541048 0.432351
29 3 0.176319 0.602075 0.311569
30 4 0.339695 0.555148 0.407768
31 1 0.105033 0.712849 0.413124
32 3 0.161344 0.781325 0.531841
33 4 0.00271105 0.721575 0.433318
34 1 0.281351 0.861718 0.434544
35 3 0.363886 0.961745 0.380283
36 4 0.372966 0.826603 0.451771
37 1 0.37588 0.00212865 0.715465
38 3 0.356297 0.0741158 0.83928
39 5 0.429438 0.0469712 0.649776
40 1 0.279183 0.183613 0.758823
41 3 0.223075 0.237085 0.628944
42 5 0.18868 0.145867 0.777578
43 1 0.147791 0.352647 0.722369
44 3 0.197529 0.421229 0.840312
45 4 0.0447917 0.348603 0.740693
46 1 0.239406 0.541048 0.741338
47 3 0.176319 0.602075 0.620556
48 4 0.339695 0.555148 0.716756
49 1 0.105033 0.712849 0.722111
50 3 0.161344 0.781325 0.840828
51 4 0.00271105 0.721575 0.742306
52 1 0.281351 0.861718 0.743532
53 3 0.363886 0.961745 0.68927
54 4 0.372966 0.826603 0.760759
55 1 0.943732 0.997871 0.284535
56 3 0.924148 0.925884 0.16072
57 5 0.997289 0.953029 0.350224
58 1 0.847034 0.816387 0.241177
59 3 0.790927 0.762915 0.371056
60 5 0.756531 0.854133 0.222422
61 1 0.715642 0.647353 0.277631
62 3 0.76538 0.578771 0.159688
63 4 0.612643 0.651396 0.259307
64 1 0.807258 0.458952 0.258662
65 3 0.74417 0.397925 0.379444
66 4 0.907546 0.444852 0.283244
67 1 0.672884 0.287151 0.277889
68 3 0.729195 0.218675 0.159172
69 4 0.570562 0.278425 0.257694
70 1 0.849203 0.138282 0.256468
71 3 0.931738 0.0382552 0.31073
72 4 0.940818 0.173397 0.239242
73 1 0.943732 0.997871 0.593522
74 3 0.924148 0.925884 0.469708
75 5 0.997289 0.953029 0.659212
76 1 0.847034 0.816387 0.550164
77 3 0.790927 0.762915 0.680044
78 5 0.756531 0.854133 0.531409
79 1 0.715642 0.647353 0.586618
80 3 0.76538 0.578771 0.468675
81 4 0.612643 0.651396 0.568295
82 1 0.807258 0.458952 0.567649
83 3 0.74417 0.397925 0.688431
84 4 0.907546 0.444852 0.592232
85 1 0.672884 0.287151 0.586876
86 3 0.729195 0.218675 0.468159
87 4 0.570562 0.278425 0.566682
88 1 0.849203 0.138282 0.565456
89 3 0.931738 0.0382552 0.619717
90 4 0.940818 0.173397 0.548229
91 1 0.943732 0.997871 0.902509
92 3 0.924148 0.925884 0.778695
93 5 0.997289 0.953029 0.968199
94 1 0.847034 0.816387 0.859152
95 3 0.790927 0.762915 0.989031
96 5 0.756531 0.854133 0.840396
97 1 0.715642 0.647353 0.895606
98 3 0.76538 0.578771 0.777663
99 4 0.612643 0.651396 0.877282
100 1 0.807258 0.458952 0.876637
101 3 0.74417 0.397925 0.997419
102 4 0.907546 0.444852 0.901219
103 1 0.672884 0.287151 0.895864
104 3 0.729195 0.218675 0.777147
105 4 0.570562 0.278425 0.875669
106 1 0.849203 0.138282 0.874443
107 3 0.931738 0.0382552 0.928705
108 4 0.940818 0.173397 0.857216
