LAMMPS protain data file

         108  atoms
         132  bonds
           0  angles
           0  dihedrals
           0  impropers

           5  atom types
           5  bond types
           0  angle types
           0  dihedral types
           0  improper types

-200.0	200.0	xlo xhi
-200.0	200.0	ylo yhi
-200.0	200.0	zlo zhi

Masses

           1	27.0
           2	14.0
           3	28.0
           4	60.0
           5	60.0

Atoms

           1	1	1	1	0.0	2.50200009	5.24399996	-1.30700004
           2	1	1	3	0.0	4.09800005	4.28999996	-2.87599993
           3	1	1	4	0.0	3.704	5.83500004	-0.57499999
           4	1	2	1	0.0	2.20000005	3.58800006	-4.7579999
           5	1	2	3	0.0	0.43099999	4.01100016	-6.32800007
           6	1	2	4	0.0	1.653	2.14199996	-4.57600021
           7	1	3	1	0.0	2.06800008	4.73600006	-8.37800026
           8	1	3	3	0.0	3.88400006	3.43799996	-9.28999996
           9	1	3	4	0.0	2.14100003	6.19299984	-8.8739996
          10	1	4	1	0.0	2.41199994	2.6170001	-11.51399994
          11	1	4	3	0.0	0.62699997	2.9519999	-13.06499958
          12	1	4	5	0.0	3.59298134	3.5959344	-11.65027382
          13	1	5	1	0.0	2.05599999	4.57399988	-14.76000023
          14	1	5	3	0.0	3.99699998	3.94799995	-16.0189991
          15	1	5	4	0.0	2.0	6.10599995	-14.5710001
          16	1	6	1	0.0	2.62299991	3.39499998	-18.36400032
          17	1	6	3	0.0	1.41900003	4.62300014	-20.08099937
          18	1	6	4	0.0	2.09599996	1.98000002	-18.60199928
          19	2	7	1	0.0	-0.67699999	12.90799999	-1.301
          20	2	7	3	0.0	1.352	12.27000046	-2.44000006
          21	2	7	4	0.0	0.25299999	13.62199974	-0.317
          22	2	8	1	0.0	0.091	11.15999985	-4.60099983
          23	2	8	3	0.0	-1.68700004	11.1960001	-6.23899984
          24	2	8	4	0.0	0.35299999	9.61800003	-4.3119998
          25	2	9	1	0.0	-0.17	12.55700016	-8.16800022
          26	2	9	3	0.0	1.67400002	11.71100044	-9.48799992
          27	2	9	4	0.0	0.105	14.07999992	-8.33100033
          28	2	10	1	0.0	0.111	10.71899986	-11.49400043
          29	2	10	3	0.0	-1.63800001	11.10000038	-13.05799961
          30	2	10	5	0.0	1.28446382	11.71470806	-11.55010602
          31	2	11	1	0.0	-0.111	12.73799992	-14.72500038
          32	2	11	3	0.0	1.81500006	12.52299976	-16.12000084
          33	2	11	4	0.0	0.035	14.25800037	-14.65499973
          34	2	12	1	0.0	0.62800002	10.79300022	-17.90500069
          35	2	12	3	0.0	-0.84899998	10.72000027	-19.83200073
          36	2	12	4	0.0	0.509	9.30599976	-17.63599968
          37	3	13	1	0.0	8.88300037	12.90799999	-1.301
          38	3	13	3	0.0	10.9119997	12.27000046	-2.44000006
          39	3	13	4	0.0	9.81299973	13.62199974	-0.317
          40	3	14	1	0.0	9.65100002	11.15999985	-4.60099983
          41	3	14	3	0.0	7.87300014	11.1960001	-6.23899984
          42	3	14	4	0.0	9.91300011	9.61800003	-4.3119998
          43	3	15	1	0.0	9.39000034	12.55700016	-8.16800022
          44	3	15	3	0.0	11.23400021	11.71100044	-9.48799992
          45	3	15	4	0.0	9.66499996	14.07999992	-8.33100033
          46	3	16	1	0.0	9.67099953	10.71899986	-11.49400043
          47	3	16	3	0.0	7.92199993	11.10000038	-13.05799961
          48	3	16	5	0.0	10.84446393	11.71470739	-11.55010596
          49	3	17	1	0.0	9.44900036	12.73799992	-14.72500038
          50	3	17	3	0.0	11.375	12.52299976	-16.12000084
          51	3	17	4	0.0	9.59500027	14.25800037	-14.65499973
          52	3	18	1	0.0	10.18799973	10.79300022	-17.90500069
          53	3	18	3	0.0	8.71100044	10.72000027	-19.83200073
          54	3	18	4	0.0	10.06900024	9.30599976	-17.63599968
          55	4	19	1	0.0	-2.40700006	4.56599998	-1.26300001
          56	4	19	3	0.0	-0.73699999	4.07200003	-2.93799996
          57	4	19	4	0.0	-2.87199998	6.0170002	-1.329
          58	4	20	1	0.0	-2.61199999	3.16000009	-4.81599998
          59	4	20	3	0.0	-4.46500015	3.87700009	-6.18200016
          60	4	20	4	0.0	-2.88499999	1.63199997	-4.89400005
          61	4	21	1	0.0	-2.87199998	4.69899988	-8.24800014
          62	4	21	3	0.0	-1.13800001	3.41100001	-9.36100006
          63	4	21	4	0.0	-2.80299997	6.23799992	-8.46100044
          64	4	22	1	0.0	-2.421	3.398	-11.76399994
          65	4	22	3	0.0	-4.2750001	3.95600009	-13.17099953
          66	4	22	5	0.0	-1.38737059	4.53488996	-11.86739938
          67	4	23	1	0.0	-2.79900002	4.44000006	-15.34000015
          68	4	23	3	0.0	-0.87400001	4.13800001	-16.70800018
          69	4	23	4	0.0	-3.03399992	5.9380002	-15.53299999
          70	4	24	1	0.0	-2.23300004	2.31500006	-18.40399933
          71	4	24	3	0.0	-3.26799989	3.04999995	-20.41399956
          72	4	24	4	0.0	-3.05500007	1.04700005	-18.59900093
          73	5	25	1	0.0	7.15299988	4.56599998	-1.26300001
          74	5	25	3	0.0	8.82299995	4.07200003	-2.93799996
          75	5	25	4	0.0	6.6880002	6.0170002	-1.329
          76	5	26	1	0.0	6.94799995	3.16000009	-4.81599998
          77	5	26	3	0.0	5.09499979	3.87700009	-6.18200016
          78	5	26	4	0.0	6.67500019	1.63199997	-4.89400005
          79	5	27	1	0.0	6.6880002	4.69899988	-8.24800014
          80	5	27	3	0.0	8.42199993	3.41100001	-9.36100006
          81	5	27	4	0.0	6.75699997	6.23799992	-8.46100044
          82	5	28	1	0.0	7.13899994	3.398	-11.76399994
          83	5	28	3	0.0	5.28499985	3.95600009	-13.17099953
          84	5	28	5	0.0	8.17262935	4.53488996	-11.86739938
          85	5	29	1	0.0	6.76100016	4.44000006	-15.34000015
          86	5	29	3	0.0	8.68599987	4.13800001	-16.70800018
          87	5	29	4	0.0	6.52600002	5.9380002	-15.53299999
          88	5	30	1	0.0	7.32700014	2.31500006	-18.40399933
          89	5	30	3	0.0	6.29199982	3.04999995	-20.41399956
          90	5	30	4	0.0	6.50500011	1.04700005	-18.59900093
          91	6	31	1	0.0	4.28599977	12.70600033	-1.27699995
          92	6	31	3	0.0	6.00500011	11.625	-2.57800007
          93	6	31	4	0.0	4.04699993	14.18099976	-1.35699999
          94	6	32	1	0.0	4.50199986	11.44999981	-4.90700006
          95	6	32	3	0.0	2.69899988	11.67599964	-6.5079999
          96	6	32	4	0.0	4.36399984	9.86499977	-4.78200006
          97	6	33	1	0.0	4.25299978	12.76000023	-8.50199986
          98	6	33	3	0.0	6.01100016	11.31499958	-9.24800014
          99	6	33	4	0.0	4.34800005	14.22500038	-9.00399971
         100	6	34	1	0.0	4.94199991	11.08399963	-11.82600021
         101	6	34	3	0.0	3.23000002	11.60400009	-13.43700027
         102	6	34	5	0.0	6.11557857	12.0786494	-11.89660465
         103	6	35	1	0.0	4.88100004	12.30099964	-15.43900013
         104	6	35	3	0.0	6.79199982	11.38199997	-16.64299965
         105	6	35	4	0.0	4.46199989	13.78199959	-15.5539999
         106	6	36	1	0.0	5.41300011	11.31299973	-19.0510006
         107	6	36	3	0.0	4.29899979	11.61499977	-21.14699936
         108	6	36	4	0.0	4.99300003	9.86299992	-19.21199989

Bond Coeffs

           1	200.0	3.77
           2	200.0	2.41
           3	200.0	2.50
           4	200.0	1.54
           5	200.0	1.54
Bonds

           1	2	1	2
           2	4	1	3
           3	1	1	4
           4	3	2	4
           5	2	4	5
           6	4	4	6
           7	1	4	7
           8	3	5	7
           9	2	7	8
          10	4	7	9
          11	1	7	10
          12	3	8	10
          13	2	10	11
          14	5	10	12
          15	1	10	13
          16	3	11	13
          17	2	13	14
          18	4	13	15
          19	1	13	16
          20	3	14	16
          21	2	16	17
          22	4	16	18
          23	2	19	20
          24	4	19	21
          25	1	19	22
          26	3	20	22
          27	2	22	23
          28	4	22	24
          29	1	22	25
          30	3	23	25
          31	2	25	26
          32	4	25	27
          33	1	25	28
          34	3	26	28
          35	2	28	29
          36	5	28	30
          37	1	28	31
          38	3	29	31
          39	2	31	32
          40	4	31	33
          41	1	31	34
          42	3	32	34
          43	2	34	35
          44	4	34	36
          45	2	37	38
          46	4	37	39
          47	1	37	40
          48	3	38	40
          49	2	40	41
          50	4	40	42
          51	1	40	43
          52	3	41	43
          53	2	43	44
          54	4	43	45
          55	1	43	46
          56	3	44	46
          57	2	46	47
          58	5	46	48
          59	1	46	49
          60	3	47	49
          61	2	49	50
          62	4	49	51
          63	1	49	52
          64	3	50	52
          65	2	52	53
          66	4	52	54
          67	2	55	56
          68	4	55	57
          69	1	55	58
          70	3	56	58
          71	2	58	59
          72	4	58	60
          73	1	58	61
          74	3	59	61
          75	2	61	62
          76	4	61	63
          77	1	61	64
          78	3	62	64
          79	2	64	65
          80	5	64	66
          81	1	64	67
          82	3	65	67
          83	2	67	68
          84	4	67	69
          85	1	67	70
          86	3	68	70
          87	2	70	71
          88	4	70	72
          89	2	73	74
          90	4	73	75
          91	1	73	76
          92	3	74	76
          93	2	76	77
          94	4	76	78
          95	1	76	79
          96	3	77	79
          97	2	79	80
          98	4	79	81
          99	1	79	82
         100	3	80	82
         101	2	82	83
         102	5	82	84
         103	1	82	85
         104	3	83	85
         105	2	85	86
         106	4	85	87
         107	1	85	88
         108	3	86	88
         109	2	88	89
         110	4	88	90
         111	2	91	92
         112	4	91	93
         113	1	91	94
         114	3	92	94
         115	2	94	95
         116	4	94	96
         117	1	94	97
         118	3	95	97
         119	2	97	98
         120	4	97	99
         121	1	97	100
         122	3	98	100
         123	2	100	101
         124	5	100	102
         125	1	100	103
         126	3	101	103
         127	2	103	104
         128	4	103	105
         129	1	103	106
         130	3	104	106
         131	2	106	107
         132	4	106	108

