ITEM: TIMESTEP
0
ITEM: NUMBER OF ATOMS
108
ITEM: BOX BOUNDS ss ss ss
-4.5050081500000001e+00 1.1415008000000000e+01
1.0069920500000000e+00 1.4298008370000000e+01
-2.1187007359999999e+01 -2.7699200000000002e-01
ITEM: ATOMS id type xs ys zs
1 1 0.440138 0.318787 0.950741
2 3 0.540389 0.24701 0.875705
3 4 0.515641 0.363253 0.985748
4 1 0.421168 0.194192 0.7857
5 3 0.31005 0.226018 0.710617
6 4 0.386809 0.0853966 0.794404
7 1 0.412877 0.280566 0.612578
8 3 0.526947 0.182906 0.568962
9 4 0.417462 0.390189 0.588857
10 1 0.434485 0.121135 0.462602
11 3 0.322362 0.14634 0.388427
12 5 0.508667 0.194789 0.456084
13 1 0.412123 0.268377 0.307365
14 3 0.534045 0.221278 0.247155
15 4 0.408606 0.383643 0.316404
16 1 0.447739 0.179671 0.135007
17 3 0.372111 0.272064 0.0528937
18 4 0.414636 0.0732079 0.123625
19 1 0.240453 0.895417 0.951028
20 3 0.367902 0.847415 0.896556
21 4 0.29887 0.949138 0.998087
22 1 0.288694 0.7639 0.793209
23 3 0.17701 0.766609 0.714873
24 4 0.305151 0.647882 0.80703
25 1 0.272299 0.869009 0.622621
26 3 0.388128 0.805357 0.559493
27 4 0.289573 0.983597 0.614825
28 1 0.28995 0.73072 0.463558
29 3 0.180088 0.759386 0.388761
30 5 0.36366 0.805636 0.460875
31 1 0.276005 0.882627 0.309039
32 3 0.396985 0.86645 0.242324
33 4 0.285176 0.99699 0.312387
34 1 0.322425 0.736287 0.156959
35 3 0.229649 0.730795 0.0648018
36 4 0.31495 0.624407 0.169823
37 1 0.840954 0.895417 0.951028
38 3 0.968404 0.847415 0.896556
39 4 0.899371 0.949138 0.998087
40 1 0.889196 0.7639 0.793209
41 3 0.777512 0.766609 0.714873
42 4 0.905653 0.647882 0.80703
43 1 0.872801 0.869009 0.622621
44 3 0.98863 0.805357 0.559493
45 4 0.890075 0.983597 0.614825
46 1 0.890452 0.73072 0.463558
47 3 0.78059 0.759386 0.388761
48 5 0.964162 0.805636 0.460875
49 1 0.876507 0.882627 0.309039
50 3 0.997487 0.86645 0.242324
51 4 0.885678 0.99699 0.312387
52 1 0.922927 0.736287 0.156959
53 3 0.83015 0.730795 0.0648018
54 4 0.915452 0.624407 0.169823
55 1 0.131784 0.267775 0.952845
56 3 0.236684 0.230607 0.87274
57 4 0.102576 0.376947 0.949689
58 1 0.118907 0.16199 0.782927
59 3 0.00251306 0.215936 0.717599
60 4 0.101759 0.0470248 0.779196
61 1 0.102576 0.277782 0.618795
62 3 0.211495 0.180875 0.565567
63 4 0.10691 0.393575 0.608608
64 1 0.130905 0.179897 0.450646
65 3 0.0144477 0.22188 0.383357
66 5 0.195831 0.265435 0.445701
67 1 0.107161 0.258295 0.279627
68 3 0.228078 0.235573 0.214204
69 4 0.0923999 0.371003 0.270397
70 1 0.142714 0.0984129 0.133094
71 3 0.0777014 0.153713 0.0369683
72 4 0.0910808 0.00301015 0.123769
73 1 0.732286 0.267775 0.952845
74 3 0.837186 0.230607 0.87274
75 4 0.703078 0.376947 0.949689
76 1 0.719409 0.16199 0.782927
77 3 0.603015 0.215936 0.717599
78 4 0.702261 0.0470248 0.779196
79 1 0.703078 0.277782 0.618795
80 3 0.811997 0.180875 0.565567
81 4 0.707412 0.393575 0.608608
82 1 0.731407 0.179897 0.450646
83 3 0.61495 0.22188 0.383357
84 5 0.796333 0.265435 0.445701
85 1 0.707663 0.258295 0.279627
86 3 0.82858 0.235573 0.214204
87 4 0.692902 0.371003 0.270397
88 1 0.743216 0.0984129 0.133094
89 3 0.678203 0.153713 0.0369683
90 4 0.691583 0.00301015 0.123769
91 1 0.552198 0.880219 0.952176
92 3 0.660176 0.798886 0.889957
93 4 0.537186 0.991196 0.94835
94 1 0.565766 0.785719 0.778575
95 3 0.452513 0.802723 0.702008
96 4 0.557098 0.666466 0.784553
97 1 0.550126 0.884282 0.606647
98 3 0.660553 0.775562 0.570971
99 4 0.556093 0.994507 0.58264
100 1 0.593404 0.758182 0.447681
101 3 0.485867 0.797306 0.370636
102 5 0.667122 0.833018 0.444304
103 1 0.589573 0.849747 0.274893
104 3 0.70961 0.780603 0.217312
105 4 0.563254 0.961176 0.269393
106 1 0.62299 0.775412 0.102152
107 3 0.553015 0.798134 0.00191334
108 4 0.596608 0.666315 0.0944527
