LAMMPS protain data file

        1761  atoms
        2344  bonds
           0  angles
           0  dihedrals
           0  impropers

           5  atom types
           5  bond types
           0  angle types
           0  dihedral types
           0  improper types

-200.0	200.0	xlo xhi
-200.0	200.0	ylo yhi
-200.0	200.0	zlo zhi

Masses

           1	27.0
           2	14.0
           3	28.0
           4	60.0
           5	60.0

Atoms

           1	1	1	1	0.0	96.93099976	-1.61099994	47.38299942
           2	1	1	3	0.0	98.38400269	-0.375	48.85699844
           3	1	1	4	0.0	96.86100006	-1.85300004	45.86899948
           4	1	2	1	0.0	99.50900269	1.15499997	46.82699966
           5	1	2	3	0.0	98.7009964	2.0999999	44.77099991
           6	1	2	4	0.0	100.88300323	0.514	46.66999817
           7	1	3	1	0.0	99.76999664	4.57000017	45.14899826
           8	1	3	3	0.0	102.14600372	4.96600008	45.30599976
           9	1	3	4	0.0	98.89099884	5.71400023	45.70999908
          10	1	4	1	0.0	102.26100159	6.31500006	42.85499954
          11	1	4	3	0.0	101.21700287	8.47200012	42.63299942
          12	1	4	4	0.0	102.36000061	5.90600014	41.36000061
          13	1	5	1	0.0	103.41300201	9.88199997	43.61199951
          14	1	5	3	0.0	105.77400208	10.28800011	43.90299988
          15	1	5	4	0.0	103.16300201	10.23900032	45.08499908
          16	1	6	1	0.0	106.09799957	11.52799988	41.44400024
          17	1	6	3	0.0	105.93199921	13.72299957	42.4640007
          18	1	6	4	0.0	105.90899658	11.94900036	39.95399857
          19	1	7	1	0.0	108.46499634	13.55000019	43.69599915
          20	1	7	3	0.0	108.91500092	15.88799953	43.34899902
          21	1	7	4	0.0	109.54499817	12.89799976	44.59600067
          22	1	8	1	0.0	110.58599854	15.50300026	41.17599869
          23	1	8	3	0.0	110.52500153	15.1619997	38.79800034
          24	1	8	4	0.0	112.08999634	15.20400047	41.04999924
          25	1	9	1	0.0	108.26000214	16.7140007	38.39599991
          26	1	9	3	0.0	110.37799835	17.63699913	37.79899979
          27	1	9	4	0.0	107.15899658	17.79000092	38.54700089
          28	1	10	1	0.0	110.0739975	17.32099915	35.07300186
          29	1	10	3	0.0	109.0719986	19.47299957	34.75400162
          30	1	10	4	0.0	109.58399963	16.58399963	33.83800125
          31	1	11	1	0.0	111.47599792	20.83200073	34.63700104
          32	1	11	3	0.0	110.80799866	21.09799957	32.34199905
          33	1	11	4	0.0	112.93399811	21.17399979	34.31499863
          34	1	12	1	0.0	108.50800323	22.5909996	32.99599838
          35	1	12	3	0.0	108.8010025	22.31699944	30.61400032
          36	1	12	4	0.0	107.8710022	23.8409996	33.61500168
          37	1	13	1	0.0	110.65899658	24.39500046	30.41500092
          38	1	13	3	0.0	112.6760025	25.11100006	31.50900078
          39	1	13	4	0.0	110.14800262	25.7840004	30.01199913
          40	1	14	1	0.0	114.32099915	23.5909996	29.89599991
          41	1	14	3	0.0	115.7440033	23.34199905	27.99600029
          42	1	14	5	0.0	114.43971301	24.87458653	29.05343738
          43	1	15	1	0.0	115.20500183	20.65600014	27.63199997
          44	1	15	3	0.0	113.52600098	21.36199951	26.05400085
          45	1	15	4	0.0	115.02100372	19.17399979	27.98900032
          46	1	16	1	0.0	115.16200256	20.79700089	23.82600021
          47	1	16	3	0.0	116.15399933	18.79599953	22.96699905
          48	1	16	4	0.0	116.21600342	21.68799973	23.15800095
          49	1	17	1	0.0	113.76100159	17.69300079	22.11300087
          50	1	17	3	0.0	115.10700226	18.37100029	20.24699974
          51	1	17	4	0.0	112.34400177	17.56500053	21.55400085
          52	1	18	1	0.0	116.29199982	15.86499977	19.93000031
          53	1	18	3	0.0	115.06700134	13.94099998	19.20100021
          54	1	18	4	0.0	117.51300049	15.26900005	20.63899994
          55	1	19	1	0.0	115.8809967	14.15600014	16.54599953
          56	1	19	3	0.0	118.04799652	13.27099991	17.05900002
          57	1	19	4	0.0	115.93699646	14.85700035	15.1789999
          58	1	20	1	0.0	117.51399994	10.74300003	16.12100029
          59	1	20	3	0.0	119.80599976	11.23200035	16.65500069
          60	1	20	4	0.0	117.0759964	9.68000031	15.10400009
          61	1	21	1	0.0	120.37000275	12.22500038	14.06599998
          62	1	21	3	0.0	122.30799866	13.32800007	14.95400047
          63	1	21	4	0.0	120.15000153	12.98200035	12.75399971
          64	1	22	1	0.0	120.89600372	14.68299961	16.93400002
          65	1	22	3	0.0	121.36499786	14.03100014	19.20100021
          66	1	22	4	0.0	119.77700043	15.5170002	17.56599998
          67	1	23	1	0.0	123.68900299	12.67099953	18.50499916
          68	1	23	3	0.0	123.35299683	11.87899971	20.72599983
          69	1	23	5	0.0	123.62042997	11.41671115	17.61412409
          70	1	24	1	0.0	120.89499664	10.70400047	20.14299965
          71	1	24	3	0.0	120.96299744	12.32400036	21.91600037
          72	1	24	4	0.0	121.125	9.19299984	20.02400017
          73	1	25	1	0.0	121.93399811	10.5369997	23.79400063
          74	1	25	3	0.0	124.05899811	11.60700035	23.47299957
          75	1	25	4	0.0	122.51599884	9.3039999	24.48999977
          76	1	26	1	0.0	123.24199677	14.01099968	24.63199997
          77	1	26	3	0.0	122.86499786	15.99600029	25.94199944
          78	1	26	4	0.0	123.15100098	14.89299965	23.38899994
          79	1	27	1	0.0	121.6740036	14.6420002	28.03300095
          80	1	27	3	0.0	119.70800018	13.33500004	27.67200089
          81	1	27	5	0.0	122.47561088	13.63718279	28.88115645
          82	1	28	1	0.0	118.80999756	13.5369997	30.26199913
          83	1	28	3	0.0	117.70300293	15.65200043	29.95800018
          84	1	28	4	0.0	119.12000275	12.81400013	31.5739994
          85	1	29	1	0.0	115.65299988	15.01599979	31.7689991
          86	1	29	3	0.0	116.05899811	14.6239996	34.10599899
          87	1	29	4	0.0	114.30899811	14.25199986	31.76600075
          88	1	30	1	0.0	116.51100159	17.31999969	34.71099854
          89	1	30	3	0.0	114.19799805	17.38800049	35.37099838
          90	1	30	4	0.0	116.93800354	18.74099922	34.36700058
          91	1	31	1	0.0	114.7480011	17.12700081	38.05099869
          92	1	31	3	0.0	114.81700134	19.49399948	37.8730011
          93	1	31	5	0.0	113.67000065	16.71392819	37.03174109
          94	1	32	1	0.0	112.15899658	19.8560009	38.60200119
          95	1	32	3	0.0	112.93499756	22.10300064	38.6780014
          96	1	32	4	0.0	110.83599854	19.70599937	39.35400009
          97	1	33	1	0.0	114.33300018	21.82099915	41.04800034
          98	1	33	3	0.0	116.62000275	22.19199944	41.67399979
          99	1	33	4	0.0	114.05699921	21.80400085	42.55599976
         100	1	34	1	0.0	117.65599823	21.17499924	39.29700089
         101	1	34	3	0.0	117.65699768	23.56100082	39.00299835
         102	1	34	4	0.0	117.8010025	20.47299957	37.94400024
         103	1	35	1	0.0	120.41100311	23.80800056	39.4129982
         104	1	35	3	0.0	122.20700073	22.38500023	38.70199966
         105	1	35	4	0.0	120.64900208	24.36800003	40.84500122
         106	1	36	1	0.0	123.6969986	24.47900009	37.5909996
         107	1	36	3	0.0	125.48600006	22.875	37.7820015
         108	1	36	4	0.0	124.27899933	25.87899971	37.41400146
         109	1	37	1	0.0	125.49199677	22.88999939	40.57699966
         110	1	37	3	0.0	125.34500122	20.52199936	40.98600006
         111	1	37	4	0.0	125.97899628	23.7159996	41.79299927
         112	1	38	1	0.0	122.89199829	20.68600082	42.30400085
         113	1	38	3	0.0	120.7519989	20.40500069	41.23500061
         114	1	38	4	0.0	122.07499695	21.1420002	43.5379982
         115	1	39	1	0.0	121.63999939	18.46699905	39.47600174
         116	1	39	3	0.0	121.10299683	16.80400085	41.10599899
         117	1	39	4	0.0	122.51799774	17.66399956	38.50999832
         118	1	40	1	0.0	118.43499756	16.61400032	40.36600113
         119	1	40	3	0.0	118.44999695	15.60400009	38.17599869
         120	1	40	4	0.0	117.23899841	17.42099953	40.93600082
         121	1	41	1	0.0	116.37200165	13.85000038	38.72499847
         122	1	41	3	0.0	114.64600372	13.31000042	40.3219986
         123	1	41	4	0.0	117.31099701	12.63500023	38.62900162
         124	1	42	1	0.0	112.68099976	12.80000019	38.42499924
         125	1	42	3	0.0	112.96199799	10.43999958	38.7480011
         126	1	42	4	0.0	112.09700012	12.60499954	37.02700043
         127	1	43	1	0.0	112.13899994	10.45400047	41.375
         128	1	43	3	0.0	109.97200012	11.00500011	42.22100067
         129	1	43	4	0.0	112.90899658	10.67700005	42.68600082
         130	1	44	1	0.0	108.91500092	8.50500011	41.79399872
         131	1	44	3	0.0	109.93299866	7.78900003	43.84000015
         132	1	44	4	0.0	108.43499756	7.37400007	40.84199905
         133	1	45	1	0.0	107.4960022	7.47800016	45.17399979
         134	1	45	3	0.0	105.1740036	6.92199993	45.45299911
         135	1	45	4	0.0	107.24099731	8.70400047	46.05500031
         136	1	46	1	0.0	105.54599762	4.1960001	45.08399963
         137	1	46	3	0.0	105.94100189	2.94799995	47.09600067
         138	1	46	4	0.0	105.96800232	2.91899991	44.30899811
         139	1	47	1	0.0	103.85600281	4.09600019	48.50600052
         140	1	47	3	0.0	101.83300018	2.93700004	47.91199875
         141	1	47	4	0.0	103.29299927	5.35099983	49.18099976
         142	1	48	1	0.0	102.23500061	0.87900001	49.72299957
         143	1	48	3	0.0	102.16600037	-1.43900001	49.11199951
         144	1	48	5	0.0	102.87151137	0.62711988	51.10249602
         145	1	49	1	0.0	104.86599731	-1.49899995	48.35499954
         146	1	49	3	0.0	106.91500092	-0.24600001	48.41899872
         147	1	49	4	0.0	104.5530014	-1.68900001	46.86399841
         148	1	50	1	0.0	108.49500275	-2.44300008	49.12200165
         149	1	50	3	0.0	109.74500275	-4.46600008	49.47999954
         150	1	50	4	0.0	108.81600189	-2.24099994	50.61600113
         151	1	51	1	0.0	109.84700012	-5.15999985	46.81700134
         152	1	51	3	0.0	110.51000214	-3.85100007	44.94200134
         153	1	51	5	0.0	111.21674021	-4.61109456	47.25758625
         154	1	52	1	0.0	110.66999817	-5.99100018	43.14400101
         155	1	52	3	0.0	108.38200378	-5.39699984	42.69900131
         156	1	52	4	0.0	111.24199677	-7.37599993	42.87599945
         157	1	53	1	0.0	108.65599823	-5.4369998	39.97600174
         158	1	53	3	0.0	110.21900177	-5.30600023	38.18199921
         159	1	53	5	0.0	108.79674224	-6.85506914	39.39216061
         160	1	54	1	0.0	108.89600372	-3.18099999	36.91400146
         161	1	54	3	0.0	107.4489975	-1.34500003	37.5
         162	1	54	4	0.0	108.45300293	-4.00600004	35.66999817
         163	1	55	1	0.0	108.47799683	0.359	35.54499817
         164	1	55	3	0.0	109.45200348	0.147	33.36299896
         165	1	55	4	0.0	109.40699768	1.41900003	36.20199966
         166	1	56	1	0.0	107.34700012	1.34800005	32.03699875
         167	1	56	3	0.0	105.93299866	3.15100002	31.32600021
         168	1	56	4	0.0	106.26100159	0.454	31.4489994
         169	1	57	1	0.0	107.90499878	5.09499979	31.66699982
         170	1	57	3	0.0	108.45500183	5.29400015	29.32699966
         171	1	57	4	0.0	109.20200348	5.86000013	32.06999969
         172	1	58	1	0.0	105.83799744	6.04799986	28.59199905
         173	1	58	3	0.0	105.72000122	8.30599976	29.38899994
         174	1	58	4	0.0	104.50800323	5.34299994	28.30500031
         175	1	59	1	0.0	105.15299988	9.38500023	26.92000008
         176	1	59	3	0.0	103.71399689	9.23099995	24.99600029
         177	1	59	4	0.0	106.35399628	9.96899986	26.15800095
         178	1	60	1	0.0	101.60399628	10.57199955	26.20999908
         179	1	60	3	0.0	102.4980011	12.72700024	25.59199905
         180	1	60	4	0.0	100.41999817	10.25300026	27.17200089
         181	1	61	1	0.0	99.95500183	13.91800022	25.46800041
         182	1	61	3	0.0	99.15899658	14.03299999	27.73500061
         183	1	61	4	0.0	98.85700226	13.99800014	24.39800072
         184	1	62	1	0.0	99.10500336	16.8239994	27.79100037
         185	1	62	3	0.0	97.20200348	17.48500061	29.1079998
         186	1	62	4	0.0	99.69000244	18.23399925	27.63299942
         187	1	63	1	0.0	95.31600189	16.5510006	27.36599922
         188	1	63	3	0.0	94.70999908	14.25899982	26.93400002
         189	1	63	4	0.0	94.71199799	17.25499916	26.1439991
         190	1	64	1	0.0	92.90200043	14.13700008	29.26399994
         191	1	64	3	0.0	93.03700256	11.76799965	28.9260006
         192	1	64	4	0.0	91.5759964	14.82800007	29.51099968
         193	1	65	1	0.0	92.30599976	11.73200035	26.41799927
         194	1	65	3	0.0	94.08799744	11.06200027	24.92499924
         195	1	65	4	0.0	91.47000122	12.10200024	25.19099998
         196	1	66	1	0.0	96.00900269	10.90400028	27.02899933
         197	1	66	3	0.0	96.83799744	8.7489996	26.40500069
         198	1	66	4	0.0	96.51499939	10.4659996	28.40699959
         199	1	67	1	0.0	96.96900177	9.2840004	23.7140007
         200	1	67	3	0.0	99.10700226	9.98900032	24.54100037
         201	1	67	4	0.0	96.71600342	9.81999969	22.29800034
         202	1	68	1	0.0	100.52100372	7.86299992	23.45899963
         203	1	68	3	0.0	101.02400208	8.69499969	21.27400017
         204	1	68	4	0.0	100.66999817	6.38999987	23.08799934
         205	1	69	1	0.0	102.87799835	10.54899979	22.09700012
         206	1	69	3	0.0	104.84999847	9.24600029	21.71299934
         207	1	69	4	0.0	103.56600189	11.65600014	22.88800049
         208	1	70	1	0.0	104.52100372	9.41100025	18.78100014
         209	1	70	3	0.0	106.58999634	8.2489996	18.53499985
         210	1	70	4	0.0	104.04199982	10.22399998	17.56900024
         211	1	71	1	0.0	108.20800018	10.24800014	19.27000046
         212	1	71	3	0.0	108.13999939	9.69699955	21.60700035
         213	1	71	4	0.0	108.89800262	11.59899998	19.01499939
         214	1	72	1	0.0	110.40200043	8.00599957	21.4260006
         215	1	72	3	0.0	111.87200165	9.64999962	22.40600014
         216	1	72	4	0.0	111.25099945	6.89499998	20.78700066
         217	1	73	1	0.0	111.92299652	8.27799988	24.89599991
         218	1	73	3	0.0	112.93699646	6.10099983	25.07600021
         219	1	73	4	0.0	111.07099915	8.00699997	26.14900017
         220	1	74	1	0.0	115.44200134	6.94299984	24.21999931
         221	1	74	3	0.0	116.22699738	7.63600016	26.39299965
         222	1	74	4	0.0	116.22699738	7.39499998	22.9810009
         223	1	75	1	0.0	118.41000366	5.96600008	26.38100052
         224	1	75	3	0.0	118.11199951	3.5940001	26.62999916
         225	1	75	5	0.0	119.4385081	5.40277354	25.38272477
         226	1	76	1	0.0	118.97399902	3.62100005	29.32699966
         227	1	76	3	0.0	116.69999695	3.37100005	30.05900002
         228	1	76	4	0.0	119.48899841	4.12099981	30.67900085
         229	1	77	1	0.0	116.54199982	0.67799997	29.31999969
         230	1	77	3	0.0	114.1989975	0.60399997	28.81100082
         231	1	77	4	0.0	116.17500305	0.54299998	30.79999924
         232	1	78	1	0.0	114.33300018	2.45099998	26.77799988
         233	1	78	3	0.0	115.09200287	1.56299996	24.6760006
         234	1	78	4	0.0	114.50299835	3.92799997	26.38699913
         235	1	79	1	0.0	112.91200256	-0.126	24.35300064
         236	1	79	3	0.0	110.71800232	0.80900002	24.12700081
         237	1	79	4	0.0	112.73200226	-1.55700004	24.87800026
         238	1	80	1	0.0	110.56700134	0.34	21.37599945
         239	1	80	3	0.0	108.78900146	1.93700004	21.22999954
         240	1	80	4	0.0	109.47100067	-0.73400003	21.48200035
         241	1	81	1	0.0	110.14700317	3.94899988	22.51000023
         242	1	81	3	0.0	110.35299683	5.48699999	24.31800079
         243	1	81	5	0.0	111.58046879	4.51165988	22.52378568
         244	1	82	1	0.0	109.10900116	3.84100008	26.17900085
         245	1	82	3	0.0	111.41600037	4.11600018	26.79500008
         246	1	82	4	0.0	107.94300079	2.99099994	26.70800018
         247	1	83	1	0.0	111.16500092	2.57999992	29.11599922
         248	1	83	3	0.0	109.45200348	1.44599998	30.33399963
         249	1	83	4	0.0	111.4509964	3.80299997	30.00399971
         250	1	84	1	0.0	111.01300049	-0.68599999	31.06900024
         251	1	84	3	0.0	113.10500336	-1.84399998	31.29599953
         252	1	84	4	0.0	110.37799835	-1.773	30.19099998
         253	1	85	1	0.0	113.23200226	-1.51999998	34.0530014
         254	1	85	3	0.0	112.17099762	-3.42199993	35.05599976
         255	1	85	4	0.0	114.04599762	-0.333	34.5530014
         256	1	86	1	0.0	112.58799744	-2.54999995	37.67499924
         257	1	86	3	0.0	111.82700348	-0.48199999	38.66899872
         258	1	86	4	0.0	113.6969986	-3.51999998	38.10699844
         259	1	87	1	0.0	112.19000244	-1.42700005	41.3030014
         260	1	87	3	0.0	112.98799896	-3.14499998	42.78300095
         261	1	87	4	0.0	110.72200012	-1.57000005	41.72399902
         262	1	88	1	0.0	114.85500336	-1.50300002	44.02899933
         263	1	88	3	0.0	113.0739975	-1.14699996	45.61299896
         264	1	88	4	0.0	115.86000061	-0.368	44.28300095
         265	1	89	1	0.0	113.81900024	-3.26799989	47.30599976
         266	1	89	3	0.0	112.86399841	-1.64300001	48.80099869
         267	1	89	4	0.0	114.54000092	-4.56599998	47.6629982
         268	1	90	1	0.0	115.25700378	-1.079	50.10100174
         269	1	90	3	0.0	115.63899994	1.29900002	50.05099869
         270	1	90	4	0.0	116.65899658	-1.22300005	50.71099854
         271	1	91	1	0.0	114.01799774	1.671	47.81600189
         272	1	91	3	0.0	111.8789978	0.95999998	46.94100189
         273	1	91	4	0.0	114.77500153	1.71700001	46.48300171
         274	1	92	1	0.0	110.52700043	3.17000008	48.00299835
         275	1	92	3	0.0	109.43800354	5.22700024	47.38800049
         276	1	92	4	0.0	109.84500122	3.17799997	49.37799835
         277	1	93	1	0.0	111.7539978	6.21299982	46.10300064
         278	1	93	3	0.0	114.03299713	6.14900017	45.30500031
         279	1	93	4	0.0	112.17500305	7.32800007	47.10100174
         280	1	94	1	0.0	113.29100037	5.49100018	42.66899872
         281	1	94	3	0.0	112.19300079	7.23000002	41.42399979
         282	1	94	4	0.0	112.87000275	4.2329998	41.90999985
         283	1	95	1	0.0	114.55699921	8.17000008	40.27799988
         284	1	95	3	0.0	115.51200104	6.51999998	38.84199905
         285	1	95	4	0.0	115.53900146	9.19900036	40.83399963
         286	1	96	1	0.0	115.44000244	8.08199978	36.59000015
         287	1	96	3	0.0	116.13400269	9.96000004	35.24100113
         288	1	96	4	0.0	114.22599792	7.89799976	35.6780014
         289	1	97	1	0.0	118.8710022	9.43299961	35.64899826
         290	1	97	3	0.0	120.39600372	8.19499969	34.29000092
         291	1	97	4	0.0	120.03600311	9.40499973	36.63299942
         292	1	98	1	0.0	118.92199707	8.59300041	31.9260006
         293	1	98	3	0.0	116.97000122	7.38700008	31.19000053
         294	1	98	4	0.0	119.65899658	7.25199986	32.0
         295	1	99	1	0.0	116.11100006	9.44799995	29.50799942
         296	1	99	3	0.0	115.68900299	11.79300022	29.1609993
         297	1	99	4	0.0	114.85399628	9.29699993	30.37800026
         298	1	100	1	0.0	116.08100128	11.6590004	26.43400002
         299	1	100	3	0.0	114.13200378	10.63000011	25.48999977
         300	1	100	5	0.0	115.52064193	12.53553015	27.5694704
         301	1	101	1	0.0	112.93599701	12.96000004	24.80699921
         302	1	101	3	0.0	113.27899933	14.3920002	22.89699936
         303	1	101	4	0.0	112.08399963	14.05099964	25.47699928
         304	1	102	1	0.0	113.39499664	12.29399967	21.08399963
         305	1	102	3	0.0	111.05000305	12.10200024	20.60700035
         306	1	102	4	0.0	113.97599792	10.98099995	20.54999924
         307	1	103	1	0.0	111.08599854	13.97200012	18.55999947
         308	1	103	3	0.0	111.90599823	12.77099991	16.625
         309	1	103	4	0.0	111.12799835	15.5	18.3560009
         310	1	104	1	0.0	109.43099976	12.56700039	15.44099998
         311	1	104	3	0.0	108.13500214	14.39599991	14.59700012
         312	1	104	4	0.0	108.26899719	11.56000042	15.57800007
         313	1	105	1	0.0	109.43599701	14.51799965	12.17500019
         314	1	105	3	0.0	107.28399658	13.46500015	12.35900021
         315	1	105	4	0.0	110.23500061	14.17000008	10.90799999
         316	1	106	1	0.0	105.99500275	15.22000027	10.69999981
         317	1	106	3	0.0	104.97699738	13.27200031	9.70499992
         318	1	106	4	0.0	105.51999664	16.53300095	10.05799961
         319	1	107	1	0.0	107.01799774	12.96000004	7.82499981
         320	1	107	3	0.0	106.06700134	10.76900005	8.03800011
         321	1	107	4	0.0	108.38400269	13.03899956	7.12400007
         322	1	108	1	0.0	107.49700165	10.11400032	10.30500031
         323	1	108	3	0.0	106.53199768	9.38300037	12.37800026
         324	1	108	4	0.0	108.85700226	9.76599979	10.93900013
         325	1	109	1	0.0	104.31199646	11.00699997	12.22399998
         326	1	109	3	0.0	103.79299927	8.93900013	13.32900047
         327	1	109	4	0.0	103.32099915	12.12100029	11.88399982
         328	1	110	1	0.0	101.72599792	8.27000046	11.58899975
         329	1	110	3	0.0	101.98699951	6.03100014	12.39400005
         330	1	110	4	0.0	100.8030014	8.16800022	10.36200047
         331	1	111	1	0.0	104.53099823	5.69399977	11.43099976
         332	1	111	3	0.0	104.38899994	4.5079999	13.50500011
         333	1	111	4	0.0	105.88300323	5.83300018	10.72299957
         334	1	112	1	0.0	105.57900238	6.5170002	14.98999977
         335	1	112	3	0.0	104.40399933	5.36999989	16.7310009
         336	1	112	4	0.0	106.01399994	7.89499998	15.47099972
         337	1	113	1	0.0	101.89900208	6.15799999	15.84599972
         338	1	113	3	0.0	101.16899872	4.0170002	16.6760006
         339	1	113	4	0.0	100.75299835	6.99800014	15.2159996
         340	1	114	1	0.0	101.59200287	2.68600011	14.33100033
         341	1	114	3	0.0	102.2539978	0.88499999	15.78600025
         342	1	114	4	0.0	101.83000183	2.31599998	12.85999966
         343	1	115	1	0.0	104.78600311	1.91400003	16.23500061
         344	1	115	3	0.0	104.89199829	1.40199995	18.59000015
         345	1	115	4	0.0	106.11799622	2.64499998	16.02700043
         346	1	116	1	0.0	102.80699921	3.079	19.23500061
         347	1	116	3	0.0	101.79199982	1.47099996	20.67000008
         348	1	116	4	0.0	102.09200287	4.42600012	19.29800034
         349	1	117	1	0.0	100.12400055	0.46799999	18.67700005
         350	1	117	3	0.0	100.35199738	-1.87800002	19.15600014
         351	1	117	4	0.0	98.92900085	0.648	17.69099998
         352	1	118	1	0.0	102.38300323	-2.29699993	17.35700035
         353	1	118	3	0.0	103.62000275	-3.8599999	18.68899918
         354	1	118	4	0.0	103.29599762	-2.21300006	16.13199997
         355	1	119	1	0.0	104.2440033	-2.03200006	20.66399956
         356	1	119	3	0.0	103.8789978	-2.55599999	22.97599983
         357	1	119	4	0.0	105.23999786	-0.88599998	20.94099998
         358	1	120	1	0.0	101.1269989	-2.17199993	22.84499931
         359	1	120	3	0.0	101.21099854	-1.32599998	25.09700012
         360	1	120	4	0.0	101.28600311	-3.54900002	23.49500084
         361	1	121	1	0.0	101.86499786	1.28699994	24.2840004
         362	1	121	3	0.0	100.14900208	2.69000006	23.38599968
         363	1	121	4	0.0	102.94999695	2.17600012	23.66200066
         364	1	122	1	0.0	98.58399963	2.66199994	25.69400024
         365	1	122	3	0.0	97.29299927	1.79499996	27.53499985
         366	1	122	4	0.0	97.49199677	2.0	24.86300087
         367	1	123	1	0.0	98.68099976	3.41899991	29.50799942
         368	1	123	3	0.0	96.95300293	2.86299992	31.08099937
         369	1	123	4	0.0	99.50700378	4.63700008	29.88599968
         370	1	124	1	0.0	95.01999664	4.48500013	29.85499954
         371	1	124	3	0.0	92.8809967	3.7579999	29.04000092
         372	1	124	4	0.0	94.64299774	5.98199987	29.92499924
         373	1	125	1	0.0	93.96900177	2.53200006	26.7689991
         374	1	125	3	0.0	91.81600189	3.5999999	26.6779995
         375	1	125	4	0.0	93.32499695	1.25199997	27.3239994
         376	1	126	1	0.0	92.34899902	4.86299992	24.26099968
         377	1	126	3	0.0	93.08799744	4.01200008	22.14999962
         378	1	126	4	0.0	92.9240036	6.28700018	24.10400009
         379	1	127	1	0.0	90.52600098	3.42600012	21.23999977
         380	1	127	3	0.0	91.55999756	5.14699984	19.94499969
         381	1	127	4	0.0	89.04699707	3.7809999	21.08799934
         382	1	128	1	0.0	92.74099731	3.30900002	18.14299965
         383	1	128	3	0.0	93.02500153	5.32299995	16.86000061
         384	1	128	4	0.0	92.9489975	2.0309999	17.27499962
         385	1	129	1	0.0	90.39199829	5.45699978	16.04299927
         386	1	129	3	0.0	90.38300323	7.85599995	16.07900047
         387	1	129	4	0.0	88.96199799	5.08500004	15.63000011
         388	1	130	1	0.0	90.40799713	8.0369997	18.84900093
         389	1	130	3	0.0	92.13800049	9.68400002	18.5909996
         390	1	130	4	0.0	89.91999817	7.77799988	20.28199959
         391	1	131	1	0.0	94.18299866	7.88800001	19.23800087
         392	1	131	3	0.0	95.51699829	7.37400007	17.31800079
         393	1	131	4	0.0	94.93900299	6.70900011	19.8560009
         394	1	132	1	0.0	94.61699677	9.49199963	15.83199978
         395	1	132	3	0.0	94.4260025	11.75800037	16.60899925
         396	1	132	4	0.0	93.72399902	8.76200008	14.8210001
         397	1	133	1	0.0	94.43900299	12.84599972	14.07699966
         398	1	133	3	0.0	96.79000092	13.28100014	13.98499966
         399	1	133	5	0.0	94.94344126	12.57480499	12.64745587
         400	1	134	1	0.0	96.58000183	15.68900013	15.36900043
         401	1	134	3	0.0	96.42099762	14.92099953	17.63299942
         402	1	134	4	0.0	96.09799957	17.14100075	15.31599998
         403	1	135	1	0.0	99.10700226	15.51500034	18.21100044
         404	1	135	3	0.0	100.48600006	17.40200043	17.6439991
         405	1	135	4	0.0	100.00900269	14.27700043	18.16900063
         406	1	136	1	0.0	100.9280014	18.15699959	20.2689991
         407	1	136	3	0.0	102.6740036	17.23500061	21.64900017
         408	1	136	4	0.0	100.35299683	18.80699921	21.53000069
         409	1	137	1	0.0	104.55200195	17.29899979	19.57699966
         410	1	137	3	0.0	106.30699921	17.5359993	21.19799995
         411	1	137	4	0.0	105.17700195	17.34000015	18.17499924
         412	1	138	1	0.0	105.96600342	20.24399948	21.54199982
         413	1	138	3	0.0	106.31199646	20.81999969	23.82799911
         414	1	138	4	0.0	105.78800201	21.71800041	21.15200043
         415	1	139	1	0.0	104.69100189	18.875	24.8560009
         416	1	139	3	0.0	103.45400238	16.8579998	24.38999939
         417	1	139	4	0.0	103.69100189	19.89299965	25.37800026
         418	1	140	1	0.0	104.27700043	15.58699989	26.76399994
         419	1	140	3	0.0	104.80599976	16.16799927	29.04199982
         420	1	140	4	0.0	105.23300171	14.48700047	26.22699928
         421	1	141	1	0.0	103.33300018	13.99400043	30.07600021
         422	1	141	3	0.0	103.13200378	11.60999966	29.85199928
         423	1	141	4	0.0	101.84899902	14.06599998	30.45000076
         424	1	142	1	0.0	105.58999634	11.07400036	31.03899956
         425	1	142	3	0.0	104.03600311	10.68700027	32.80799866
         426	1	142	4	0.0	106.88600159	11.19099998	31.84000015
         427	1	143	1	0.0	103.52999878	8.10000038	32.13800049
         428	1	143	3	0.0	105.44599915	6.75099993	32.65100098
         429	1	143	4	0.0	102.58000183	7.3829999	31.17200089
         430	1	144	1	0.0	104.27500153	5.5999999	34.88800049
         431	1	144	3	0.0	102.49199677	4.38899994	35.99200058
         432	1	144	4	0.0	104.65200043	6.25400019	36.2140007
         433	1	145	1	0.0	102.85900116	2.11999989	34.32899857
         434	1	145	3	0.0	104.1989975	0.119	34.54600143
         435	1	145	4	0.0	102.6230011	1.63100004	32.89099884
         436	1	146	1	0.0	104.69599915	0.52100003	37.27299881
         437	1	146	3	0.0	102.66999817	-0.55500001	38.00899887
         438	1	146	4	0.0	105.26499939	1.32299995	38.47299957
         439	1	147	1	0.0	103.92099762	-3.01300001	38.51399994
         440	1	147	3	0.0	105.61299896	-3.5250001	40.15299988
         441	1	147	4	0.0	104.18099976	-4.20100021	37.54299927
         442	1	148	1	0.0	103.77899933	-4.00500011	42.20600128
         443	1	148	3	0.0	103.4509964	-6.28399992	41.50699997
         444	1	148	4	0.0	103.02600098	-3.1329999	43.26200104
         445	1	149	1	0.0	102.57900238	-7.13100004	44.01900101
         446	1	149	3	0.0	102.08699799	-6.69099998	46.31299973
         447	1	149	4	0.0	103.80400085	-8.00599957	44.26599884
         448	1	150	1	0.0	99.56800079	-7.80600023	46.19800186
         449	1	150	3	0.0	101.36399841	-9.11600018	47.10100174
         450	1	150	4	0.0	98.25099945	-8.42399979	45.7140007
         451	1	151	1	0.0	100.07499695	-9.81700039	49.41500092
         452	1	151	3	0.0	100.33999634	-12.14400005	49.95700073
         453	1	151	4	0.0	99.08000183	-9.64099979	50.56000137
         454	1	152	1	0.0	100.65200043	-13.01500034	47.38399887
         455	1	152	3	0.0	101.88400269	-14.2869997	45.7519989
         456	1	152	4	0.0	99.34999847	-13.60299969	46.90499878
         457	1	153	1	0.0	103.47699738	-12.17599964	45.01100159
         458	1	153	3	0.0	103.71600342	-11.97399998	42.64899826
         459	1	153	5	0.0	103.71730415	-10.66288102	45.16696536
         460	1	154	1	0.0	101.06099701	-11.50300026	42.19300079
         461	1	154	3	0.0	101.23000336	-9.14599991	42.56499863
         462	1	154	4	0.0	99.55200195	-11.74100018	42.24100113
         463	1	155	1	0.0	102.05999756	-8.53800011	40.01599884
         464	1	155	3	0.0	99.69200134	-8.20100021	40.06000137
         465	1	155	4	0.0	102.48699951	-8.78800011	38.57400131
         466	1	156	1	0.0	99.85800171	-5.46400023	40.31499863
         467	1	156	3	0.0	101.20500183	-3.49699998	40.02500153
         468	1	156	4	0.0	99.45899963	-5.2750001	41.7840004
         469	1	157	1	0.0	99.61100006	-2.43199992	38.01900101
         470	1	157	3	0.0	97.51200104	-1.45000005	38.65599823
         471	1	157	4	0.0	99.27899933	-2.59200001	36.52999878
         472	1	158	1	0.0	98.66100311	0.76899999	39.8370018
         473	1	158	3	0.0	98.50700378	1.77100003	37.65800095
         474	1	158	4	0.0	99.4960022	1.301	41.0019989
         475	1	159	1	0.0	97.39800262	4.15100002	38.59500122
         476	1	159	3	0.0	99.59500122	5.07700014	38.31499863
         477	1	159	4	0.0	96.81800079	5.29099989	39.48500061
         478	1	160	1	0.0	99.45800018	5.36199999	35.59999847
         479	1	160	3	0.0	98.97799683	7.59899998	34.875
         480	1	160	4	0.0	99.08100128	4.8920002	34.18999863
         481	1	161	1	0.0	100.2460022	8.83199978	36.98899841
         482	1	161	3	0.0	101.95200348	8.97700024	35.30699921
         483	1	161	4	0.0	100.87400055	9.19099998	38.36700058
         484	1	162	1	0.0	101.33899689	11.68900013	34.71900177
         485	1	162	3	0.0	102.14199829	13.10000038	36.50899887
         486	1	162	4	0.0	100.29000092	12.44099998	33.88700104
         487	1	163	1	0.0	104.21800232	14.14400005	34.98899841
         488	1	163	3	0.0	103.0039978	15.64700031	33.58300018
         489	1	163	4	0.0	105.57800293	13.86299992	34.35400009
         490	1	164	1	0.0	103.78700256	17.92399979	34.99700165
         491	1	164	3	0.0	105.23999786	17.55599976	33.11999893