ITEM: TIMESTEP
0
ITEM: NUMBER OF ATOMS
1761
ITEM: BOX BOUNDS ss ss ss
8.8921989990000000e+01 1.4565100043000001e+02
-1.4327007700000001e+01 7.2319007330000005e+01
-4.2285006930000002e+01 5.1142504019999997e+01
ITEM: ATOMS id type xs ys zs
1 1 0.14118 0.146758 0.95976
2 3 0.166793 0.161023 0.975537
3 4 0.139946 0.143965 0.943555
4 1 0.186624 0.178681 0.953809
5 3 0.172381 0.189588 0.931803
6 4 0.210845 0.171283 0.952129
7 1 0.191225 0.218094 0.935849
8 3 0.233108 0.222665 0.937529
9 4 0.17573 0.231298 0.941853
10 1 0.235136 0.238234 0.911295
11 3 0.216732 0.263128 0.908919
12 4 0.236881 0.233513 0.895293
13 1 0.255443 0.279401 0.919397
14 3 0.297062 0.284087 0.922512
15 4 0.251036 0.283521 0.935164
16 1 0.302773 0.298398 0.896192
17 3 0.299847 0.323731 0.90711
18 4 0.299441 0.303257 0.880244
19 1 0.344498 0.321734 0.920296
20 3 0.35243 0.348718 0.916582
21 4 0.363535 0.31421 0.92993
22 1 0.381886 0.344274 0.893324
23 3 0.380811 0.340339 0.867871
24 4 0.408398 0.340824 0.891975
25 1 0.340884 0.358251 0.863568
26 3 0.378219 0.368903 0.857178
27 4 0.321476 0.370669 0.865184
28 1 0.372861 0.365256 0.828
29 3 0.355198 0.390093 0.824586
30 4 0.364223 0.35675 0.814782
31 1 0.397574 0.405778 0.823334
32 3 0.385799 0.408848 0.798769
33 4 0.423276 0.409725 0.819887
34 1 0.345256 0.426079 0.805769
35 3 0.350421 0.422916 0.780273
36 4 0.334027 0.440505 0.812395
37 1 0.383173 0.446899 0.778143
38 3 0.418728 0.455162 0.789853
39 4 0.374165 0.46293 0.77383
40 1 0.447725 0.43762 0.772588
41 3 0.472809 0.434746 0.752252
42 5 0.449818 0.452434 0.76357
43 1 0.463308 0.403746 0.748356
44 3 0.433711 0.411894 0.731466
45 4 0.460065 0.386642 0.752177
46 1 0.46255 0.405374 0.707618
47 3 0.480037 0.38228 0.698424
48 4 0.48113 0.415657 0.700468
49 1 0.437854 0.36955 0.689283
50 3 0.461581 0.377375 0.66931
51 4 0.412875 0.368072 0.6833
52 1 0.482469 0.348452 0.665917
53 3 0.460876 0.326247 0.658115
54 4 0.503993 0.341574 0.673506
55 1 0.475224 0.328728 0.629697
56 3 0.513423 0.318514 0.635188
57 4 0.476211 0.336819 0.615065
58 1 0.50401 0.289338 0.625148
59 3 0.544413 0.294982 0.630864
60 4 0.496289 0.27707 0.614262
61 1 0.554355 0.306442 0.603152
62 3 0.588517 0.319172 0.612657
63 4 0.550477 0.315179 0.589109
64 1 0.563627 0.334811 0.63385
65 3 0.571894 0.327286 0.658115
66 4 0.543902 0.344436 0.640614
67 1 0.612861 0.31159 0.650665
68 3 0.606938 0.302449 0.674437
69 5 0.611652 0.297114 0.641129
70 1 0.563609 0.288888 0.668197
71 3 0.564808 0.307585 0.687175
72 4 0.567664 0.271449 0.666924
73 1 0.581925 0.286961 0.707276
74 3 0.619383 0.29931 0.70384
75 4 0.592184 0.27273 0.714725
76 1 0.604982 0.327055 0.716245
77 3 0.598336 0.349964 0.730267
78 4 0.603378 0.337234 0.702941
79 1 0.577342 0.334337 0.752648
80 3 0.542685 0.319253 0.748784
81 5 0.591472 0.322741 0.761726
82 1 0.526856 0.321584 0.776506
83 3 0.507342 0.345994 0.773252
84 4 0.53232 0.31324 0.790549
85 1 0.471205 0.338654 0.792636
86 3 0.478362 0.33413 0.81765
87 4 0.447514 0.329836 0.792604
88 1 0.48633 0.365245 0.824126
89 3 0.445557 0.36603 0.83119
90 4 0.493857 0.381645 0.820444
91 1 0.455252 0.363017 0.859875
92 3 0.456469 0.390335 0.85797
93 5 0.43625 0.35825 0.848966
94 1 0.409614 0.394513 0.865773
95 3 0.423293 0.420446 0.866586
96 4 0.386293 0.392782 0.873822
97 1 0.447937 0.417192 0.891954
98 3 0.488251 0.421474 0.898654
99 4 0.443072 0.416996 0.908094
100 1 0.506513 0.409736 0.873212
101 3 0.506531 0.437274 0.870065
102 4 0.50907 0.401634 0.85873
103 1 0.555078 0.440124 0.874453
104 3 0.586737 0.423701 0.866843
105 4 0.559273 0.446587 0.889781
106 1 0.613002 0.447868 0.854952
107 3 0.644538 0.429356 0.856996
108 4 0.623262 0.464026 0.853057
109 1 0.644644 0.429529 0.886912
110 3 0.642053 0.4022 0.89129
111 4 0.653228 0.439062 0.899928
112 1 0.598812 0.404093 0.905397
113 3 0.561089 0.400849 0.893955
114 4 0.58441 0.409355 0.918605
115 1 0.576742 0.378483 0.875128
116 3 0.567276 0.35929 0.892574
117 4 0.592219 0.369215 0.864788
118 1 0.520245 0.357097 0.884654
119 3 0.52051 0.34544 0.861213
120 4 0.499163 0.36641 0.890755
121 1 0.48388 0.325197 0.867089
122 3 0.453454 0.318965 0.884183
123 4 0.500432 0.311174 0.866062
124 1 0.418816 0.313079 0.863878
125 3 0.423769 0.285841 0.867336
126 4 0.408521 0.310828 0.848915
127 1 0.409262 0.286003 0.895454
128 3 0.371063 0.292362 0.904509
129 4 0.422835 0.288577 0.909486
130 1 0.35243 0.263509 0.899938
131 3 0.370375 0.255246 0.921838
132 4 0.343969 0.250456 0.889749
133 1 0.327416 0.251656 0.936116
134 3 0.286485 0.245239 0.939102
135 4 0.322921 0.265806 0.945546
136 1 0.293042 0.213778 0.935153
137 3 0.300005 0.199375 0.956688
138 4 0.300481 0.19904 0.926858
139 1 0.263252 0.212624 0.97178
140 3 0.227591 0.199248 0.965422
141 4 0.253327 0.227108 0.979005
142 1 0.234677 0.175496 0.984806
143 3 0.233461 0.148743 0.978267
144 5 0.245897 0.172589 0.999572
145 1 0.281056 0.148051 0.970164
146 3 0.317175 0.162512 0.970849
147 4 0.275538 0.145858 0.954205
148 1 0.345027 0.137156 0.978374
149 3 0.367061 0.113808 0.982205
150 4 0.350685 0.139487 0.994365
151 1 0.368859 0.105798 0.953702
152 3 0.380546 0.120906 0.933633
153 5 0.393004 0.112133 0.958418
154 1 0.383367 0.0962076 0.914388
155 3 0.343035 0.103063 0.909625
156 4 0.39345 0.0802231 0.91152
157 1 0.347864 0.102601 0.88048
158 3 0.375417 0.104113 0.861277
159 5 0.350345 0.0862352 0.87423
160 1 0.352095 0.128638 0.847705
161 3 0.326588 0.149828 0.853978
162 4 0.344286 0.119117 0.83439
163 1 0.344727 0.169494 0.833052
164 3 0.361896 0.167048 0.809697
165 4 0.361103 0.181728 0.840085
166 1 0.32479 0.180909 0.795505
167 3 0.299864 0.201717 0.787894
168 4 0.305646 0.170591 0.789211
169 1 0.334626 0.224153 0.791544
170 3 0.344321 0.22645 0.766498
171 4 0.357489 0.232983 0.795858
172 1 0.29819 0.235152 0.758631
173 3 0.29611 0.261212 0.767162
174 4 0.274745 0.227016 0.755559
175 1 0.286115 0.273665 0.740735
176 3 0.260749 0.271888 0.720141
177 4 0.307286 0.280405 0.732579
178 1 0.223554 0.287365 0.733135
179 3 0.239313 0.312236 0.726521
180 4 0.202683 0.283683 0.743432
181 1 0.194486 0.325982 0.725193
182 3 0.180455 0.327309 0.749458
183 4 0.175131 0.326905 0.713741
184 1 0.179503 0.35952 0.750058
185 3 0.145957 0.367149 0.764154
186 4 0.189815 0.375793 0.748366
187 1 0.112712 0.35637 0.745509
188 3 0.102029 0.329917 0.740885
189 4 0.102064 0.364495 0.732429
190 1 0.0701583 0.328509 0.765824
191 3 0.0725381 0.301168 0.762206
192 4 0.0467839 0.336484 0.768468
193 1 0.0596522 0.300753 0.735362
194 3 0.0910646 0.29302 0.719381
195 4 0.0449155 0.305023 0.722228
196 1 0.124927 0.291196 0.741901
197 3 0.139541 0.266325 0.735222
198 4 0.133847 0.286141 0.756651
199 1 0.14185 0.2725 0.706419
200 3 0.179538 0.280636 0.715271
201 4 0.13739 0.278686 0.691263
202 1 0.204464 0.2561 0.70369
203 3 0.21333 0.265702 0.680303
204 4 0.20709 0.239099 0.699719
205 1 0.246012 0.287099 0.689112
206 3 0.280774 0.272061 0.685002
207 4 0.25814 0.299875 0.697578
208 1 0.274974 0.273965 0.653619
209 3 0.311446 0.260554 0.650986
210 4 0.26653 0.283348 0.640646
211 1 0.339967 0.283625 0.658853
212 3 0.338769 0.277266 0.683867
213 4 0.35213 0.299218 0.656124
214 1 0.378642 0.25775 0.68193
215 3 0.404555 0.276724 0.692419
216 4 0.393608 0.244928 0.67509
217 1 0.405454 0.260889 0.719071
218 3 0.423328 0.235764 0.720998
219 4 0.390435 0.257762 0.732482
220 1 0.467486 0.245482 0.711835
221 3 0.481324 0.25348 0.735094
222 4 0.481324 0.250698 0.698574
223 1 0.519805 0.234206 0.734966
224 3 0.514552 0.20683 0.737631
225 5 0.537935 0.227706 0.724281
226 1 0.529747 0.207142 0.766498
227 3 0.489661 0.204256 0.774333
228 4 0.538825 0.212912 0.780969
229 1 0.486876 0.173176 0.766423
230 3 0.445575 0.172322 0.760975
231 4 0.480407 0.171618 0.782264
232 1 0.447937 0.193639 0.739215
233 3 0.461316 0.18339 0.716716
234 4 0.450933 0.210685 0.73503
235 1 0.422888 0.163897 0.713259
236 3 0.384213 0.174688 0.71084
237 4 0.419715 0.147381 0.718878
238 1 0.381551 0.169275 0.681395
239 3 0.350209 0.187706 0.679832
240 4 0.362231 0.15688 0.682529
241 1 0.374147 0.210927 0.693532
242 3 0.377779 0.228678 0.712884
243 5 0.399416 0.217421 0.69368
244 1 0.35585 0.209681 0.732804
245 3 0.396517 0.212855 0.739397
246 4 0.335296 0.199871 0.738466
247 1 0.392092 0.195127 0.76424
248 3 0.361896 0.18204 0.777276
249 4 0.397134 0.209242 0.773744
250 1 0.389413 0.157434 0.785144
251 3 0.42629 0.144069 0.787573
252 4 0.378219 0.144888 0.775746
253 1 0.428529 0.147808 0.817083
254 3 0.409826 0.125857 0.827818
255 4 0.442878 0.161508 0.822435
256 1 0.417176 0.135921 0.855851
257 3 0.403762 0.159788 0.86649
258 4 0.436726 0.124726 0.860475
259 1 0.410161 0.148882 0.894683
260 3 0.424228 0.129054 0.910524
261 4 0.384283 0.147231 0.899189
262 1 0.457138 0.148005 0.923861
263 3 0.425744 0.152113 0.940815
264 4 0.474854 0.161104 0.926579
265 1 0.438876 0.127634 0.958936
266 3 0.422042 0.146389 0.974938
267 4 0.451586 0.112654 0.962757
268 1 0.464225 0.152898 0.988852
269 3 0.470959 0.180343 0.988317
270 4 0.488939 0.151236 0.995381
271 1 0.442384 0.184636 0.964395
272 3 0.404678 0.176431 0.955029
273 4 0.455728 0.185167 0.950127
274 1 0.380846 0.201937 0.966396
275 3 0.361649 0.225677 0.959814
276 4 0.368824 0.202029 0.981114
277 1 0.402475 0.237057 0.94606
278 3 0.442648 0.236318 0.937518
279 4 0.409896 0.249925 0.956742
280 1 0.429569 0.228724 0.909304
281 3 0.410214 0.248794 0.895978
282 4 0.422148 0.214205 0.90118
283 1 0.451885 0.259643 0.883712
284 3 0.46872 0.2406 0.868342
285 4 0.469196 0.271519 0.889663
286 1 0.467451 0.258627 0.844237
287 3 0.479684 0.280301 0.829798
288 4 0.446051 0.256504 0.834476
289 1 0.527931 0.274219 0.834165
290 3 0.554813 0.259931 0.819619
291 4 0.548467 0.273896 0.844698
292 1 0.52883 0.264525 0.794316
293 3 0.494421 0.250606 0.786439
294 4 0.541822 0.249048 0.795108
295 1 0.479279 0.274392 0.768435
296 3 0.47184 0.301457 0.764721
297 4 0.457121 0.27265 0.777747
298 1 0.47875 0.29991 0.735533
299 3 0.444394 0.288034 0.725429
300 5 0.468872 0.310026 0.747686
301 1 0.423311 0.314925 0.718118
302 3 0.429357 0.331452 0.697675
303 4 0.408292 0.327517 0.72529
304 1 0.431402 0.307239 0.678269
305 3 0.390065 0.305023 0.673164
306 4 0.441644 0.292085 0.672554
307 1 0.3907 0.326605 0.651254
308 3 0.405154 0.312744 0.630542
309 4 0.39144 0.34424 0.64907
310 1 0.361526 0.310389 0.617869
311 3 0.338681 0.331498 0.608836
312 4 0.341043 0.298767 0.619336
313 1 0.361614 0.332906 0.582912
314 3 0.323679 0.320753 0.584881
315 4 0.375699 0.32889 0.569351
316 1 0.300957 0.341008 0.567124
317 3 0.283012 0.318526 0.556474
318 4 0.292584 0.356162 0.560253
319 1 0.31899 0.314925 0.536352
320 3 0.302227 0.289638 0.538632
321 4 0.34307 0.315837 0.528849
322 1 0.327434 0.282079 0.562896
323 3 0.310423 0.273642 0.585085
324 4 0.351408 0.278062 0.569682
325 1 0.27129 0.292385 0.583436
326 3 0.262141 0.268518 0.595264
327 4 0.253821 0.305242 0.579797
328 1 0.225705 0.260797 0.57664
329 3 0.230306 0.234956 0.585256
330 4 0.209434 0.25962 0.563506
331 1 0.27515 0.231067 0.574948
332 3 0.272647 0.217379 0.597148
333 4 0.298983 0.232671 0.56737
334 1 0.293624 0.240565 0.613042
335 3 0.272912 0.227327 0.631677
336 4 0.301292 0.256469 0.618191
337 1 0.228754 0.236422 0.622204
338 3 0.215886 0.211712 0.631088
339 4 0.208553 0.246116 0.615461
340 1 0.223343 0.196351 0.605989
341 3 0.235012 0.175565 0.621562
342 4 0.227538 0.19208 0.590244
343 1 0.279646 0.187441 0.626368
344 3 0.281514 0.181532 0.651575
345 4 0.303125 0.195878 0.624142
346 1 0.24476 0.200886 0.658479
347 3 0.226868 0.182328 0.673838
348 4 0.232157 0.216432 0.659153
349 1 0.197465 0.170752 0.652506
350 3 0.201484 0.143677 0.657633
351 4 0.1764 0.17283 0.641952
352 1 0.237286 0.138841 0.638377
353 3 0.259092 0.120802 0.652634
354 4 0.25338 0.13981 0.625266
355 1 0.270091 0.141899 0.673774
356 3 0.263657 0.135852 0.69852
357 4 0.287648 0.155126 0.676739
358 1 0.215146 0.140284 0.697118
359 3 0.216627 0.150047 0.721222
360 4 0.217949 0.124391 0.704075
361 1 0.228155 0.180205 0.71252
362 3 0.197906 0.196397 0.702909
363 4 0.247281 0.190465 0.705863
364 1 0.170319 0.196074 0.727612
365 3 0.147561 0.186068 0.747317
366 4 0.151069 0.188433 0.718718
367 1 0.172029 0.20481 0.768435
368 3 0.141568 0.198394 0.785272
369 4 0.186589 0.218868 0.772481
370 1 0.107494 0.217113 0.77215
371 3 0.069788 0.208723 0.763426
372 4 0.100848 0.234391 0.772899
373 1 0.088967 0.194573 0.739119
374 3 0.0510147 0.206899 0.738145
375 4 0.0776147 0.179801 0.745059
376 1 0.0604102 0.221476 0.712274
377 3 0.073437 0.211654 0.689679
378 4 0.0705462 0.237911 0.710594
379 1 0.028275 0.204891 0.679939
380 3 0.0465019 0.224754 0.666078
381 4 0.00220358 0.208988 0.678312
382 1 0.0673202 0.203541 0.64679
383 3 0.0723265 0.226785 0.633058
384 4 0.0709867 0.188791 0.6375
385 1 0.0259128 0.228331 0.624313
386 3 0.0257543 0.256019 0.624698
387 4 0.000705248 0.224038 0.619892
388 1 0.0261948 0.258108 0.654347
389 3 0.0566908 0.277116 0.651585
390 4 0.0175926 0.255119 0.669685
391 1 0.0927393 0.256388 0.658511
392 3 0.116255 0.250456 0.63796
393 4 0.106066 0.242781 0.665125
394 1 0.10039 0.2749 0.622055
395 3 0.0970229 0.301053 0.630371
396 4 0.0846482 0.266475 0.611233
397 1 0.0972521 0.313609 0.60327
398 3 0.138695 0.31863 0.602285
399 5 0.106144 0.31048 0.587969
400 1 0.134993 0.346421 0.617099
401 3 0.13219 0.337557 0.641332
402 4 0.126496 0.363179 0.616532
403 1 0.179538 0.344413 0.647518
404 3 0.203846 0.366191 0.641449
405 4 0.195438 0.330125 0.647069
406 1 0.211638 0.374905 0.669546
407 3 0.242416 0.364264 0.684317
408 4 0.201502 0.382407 0.683043
409 1 0.275521 0.365002 0.662139
410 3 0.306457 0.367738 0.679489
411 4 0.286538 0.365476 0.647133
412 1 0.300446 0.398991 0.683171
413 3 0.306545 0.405639 0.70764
414 4 0.297308 0.416003 0.678997
415 1 0.277971 0.383191 0.718643
416 3 0.256165 0.359913 0.713655
417 4 0.260343 0.39494 0.72423
418 1 0.270673 0.345244 0.739065
419 3 0.279998 0.351949 0.763448
420 4 0.287525 0.332549 0.733317
421 1 0.254032 0.326859 0.774515
422 3 0.250489 0.299344 0.772117
423 4 0.227873 0.32769 0.778518
424 1 0.293818 0.293158 0.784822
425 3 0.266425 0.288692 0.803757
426 4 0.316664 0.294509 0.793396
427 1 0.257505 0.258835 0.796586
428 3 0.29128 0.243266 0.802076
429 4 0.240759 0.25056 0.786246
430 1 0.270638 0.229982 0.82602
431 3 0.239208 0.216005 0.837837
432 4 0.277283 0.23753 0.840213
433 1 0.245677 0.189818 0.820037
434 3 0.269298 0.166724 0.82236
435 4 0.241517 0.184175 0.804645
436 1 0.278059 0.171364 0.851548
437 3 0.242345 0.158946 0.859426
438 4 0.288089 0.18062 0.864392
439 1 0.264397 0.130577 0.864831
440 3 0.294224 0.124668 0.882374
441 4 0.268981 0.116866 0.854438
442 1 0.261894 0.119128 0.904348
443 3 0.256112 0.0928261 0.896867
444 4 0.248621 0.129192 0.915651
445 1 0.240741 0.0830506 0.923754
446 3 0.232068 0.0881288 0.948307
447 4 0.262335 0.0729521 0.926397
448 1 0.187664 0.0752603 0.947077
449 3 0.219324 0.0601413 0.956742
450 4 0.164449 0.0681279 0.941896
451 1 0.196601 0.0520509 0.98151
452 3 0.201273 0.0251946 0.987311
453 4 0.179062 0.0540822 0.993765
454 1 0.206773 0.0151422 0.959771
455 3 0.22849 0.000461741 0.942303
456 4 0.183821 0.00835593 0.954644
457 1 0.256571 0.0248252 0.934372
458 3 0.260784 0.0271566 0.90909
459 5 0.260807 0.0422885 0.936041
460 1 0.213982 0.0325925 0.904209
461 3 0.216962 0.0597951 0.908191
462 4 0.187382 0.0298457 0.904723
463 1 0.231592 0.0668122 0.880908
464 3 0.18985 0.0707015 0.881379
465 4 0.239119 0.0639269 0.865473
466 1 0.192776 0.10229 0.884108
467 3 0.216521 0.124991 0.881004
468 4 0.185743 0.104471 0.899831
469 1 0.188422 0.137283 0.859533
470 3 0.151422 0.148616 0.866351
471 4 0.18257 0.135436 0.843595
472 1 0.171676 0.174226 0.878992
473 3 0.168961 0.185791 0.855669
474 4 0.186395 0.180366 0.891461
475 1 0.149412 0.213259 0.865698
476 3 0.18814 0.223946 0.862701
477 4 0.139188 0.226416 0.875224
478 1 0.185725 0.227235 0.833641
479 3 0.177264 0.253053 0.825881
480 4 0.17908 0.221811 0.818549
481 1 0.199616 0.267283 0.848508
482 3 0.229689 0.268956 0.830505
483 4 0.210686 0.271426 0.863258
484 1 0.218883 0.300256 0.824211
485 3 0.233038 0.316541 0.84337
486 4 0.200391 0.308935 0.815306
487 1 0.269633 0.32859 0.827101
488 3 0.248233 0.345936 0.812052
489 4 0.293607 0.325347 0.820304
490 1 0.262035 0.372216 0.827187
491 3 0.287648 0.367969 0.807096
492 4 0.274533 0.383757 0.83697
493 1 0.264133 0.387358 0.789115
494 3 0.302121 0.399361 0.793193
495 4 0.247916 0.400757 0.785058
496 1 0.323239 0.384149 0.769838
497 3 0.311745 0.384542 0.745155
498 4 0.335666 0.368315 0.767943
499 1 0.328721 0.413406 0.740114
500 3 0.370622 0.417873 0.73975
501 4 0.318497 0.42961 0.741901
502 1 0.374588 0.410325 0.710476
503 3 0.376721 0.436062 0.701185
504 4 0.368965 0.405085 0.695181
505 1 0.409614 0.445918 0.720987
506 3 0.429199 0.463841 0.705231
507 4 0.428194 0.446518 0.732857
508 1 0.428282 0.444348 0.681716
509 3 0.411747 0.460079 0.662974
510 4 0.434787 0.429472 0.673838
511 1 0.365334 0.456467 0.67372
512 3 0.362196 0.478072 0.689829
513 4 0.343986 0.447984 0.679789
514 1 0.362795 0.500231 0.667919
515 3 0.343211 0.516469 0.685034
516 4 0.36172 0.505921 0.652442
517 1 0.2996 0.501927 0.68193
518 3 0.277636 0.497161 0.703433
519 4 0.278517 0.496607 0.672971
520 1 0.314619 0.484835 0.718322
521 3 0.340937 0.472313 0.734687
522 4 0.298701 0.47057 0.720195
523 1 0.380864 0.485677 0.72332
524 3 0.363624 0.500427 0.742233
525 4 0.398403 0.492567 0.712788
526 1 0.403092 0.503509 0.758149
527 3 0.409367 0.524825 0.74203
528 4 0.424122 0.49805 0.767183
529 1 0.404467 0.547365 0.762902
530 3 0.430168 0.552963 0.782436
531 4 0.38349 0.555756 0.769613
532 1 0.464066 0.566916 0.765931
533 3 0.4653 0.587067 0.748206
534 4 0.48499 0.556344 0.762185
535 1 0.486436 0.608049 0.766841
536 3 0.522784 0.606768 0.779803
537 4 0.476441 0.619798 0.777876
538 1 0.551129 0.604229 0.755613
539 3 0.574697 0.618113 0.772449
540 4 0.559485 0.60162 0.740328
541 1 0.565742 0.646331 0.760408
542 3 0.534242 0.657087 0.746739
543 4 0.591532 0.648916 0.756223
544 1 0.540464 0.686379 0.757411
545 3 0.571066 0.704418 0.762773
546 4 0.521444 0.68811 0.769067
547 1 0.555801 0.725965 0.742008
548 3 0.583423 0.73746 0.758117
549 4 0.537979 0.735718 0.733842
550 1 0.547956 0.748425 0.776292
551 3 0.512666 0.735418 0.783345
552 4 0.543073 0.765517 0.773498
553 1 0.519153 0.739769 0.811785
554 3 0.511502 0.749175 0.835289
555 4 0.529553 0.725735 0.819341
556 1 0.503552 0.779066 0.827016
557 3 0.464383 0.788853 0.829798
558 4 0.52497 0.789431 0.82906
559 1 0.46493 0.806211 0.804999
560 3 0.451427 0.813967 0.828343
561 5 0.482374 0.819344 0.801657
562 1 0.427859 0.839704 0.818613
563 3 0.391916 0.825531 0.815723
564 4 0.423928 0.854696 0.810607
565 1 0.374324 0.833633 0.842418
566 3 0.333304 0.837419 0.836584
567 4 0.37205 0.839046 0.857981
568 1 0.343052 0.854765 0.812031
569 3 0.325425 0.847217 0.789735
570 4 0.351496 0.870577 0.80685
571 1 0.354422 0.821527 0.786353
572 3 0.360786 0.841897 0.769656
573 5 0.380861 0.818134 0.788371
574 1 0.367114 0.823073 0.74659
575 3 0.399461 0.823131 0.729828
576 5 0.359206 0.807339 0.740612
577 1 0.430009 0.809062 0.748388
578 3 0.42072 0.782898 0.743668
579 4 0.443689 0.806258 0.762324
580 1 0.443072 0.782229 0.717433
581 3 0.479913 0.774681 0.728083
582 4 0.451286 0.787076 0.702373
583 1 0.46872 0.744327 0.729089
584 3 0.45742 0.729232 0.70856
585 4 0.458249 0.736699 0.742736
586 1 0.500326 0.713639 0.707693
587 3 0.519576 0.69829 0.725129
588 4 0.523789 0.717125 0.700425
589 1 0.487687 0.674492 0.723641
590 3 0.483033 0.658484 0.702898
591 4 0.464207 0.671941 0.731605
592 1 0.518148 0.638056 0.710883
593 3 0.510145 0.623272 0.731765
594 4 0.544783 0.636071 0.711054
595 1 0.48224 0.602244 0.717647
596 3 0.492394 0.587228 0.697022
597 4 0.456116 0.606179 0.718814
598 1 0.477745 0.559645 0.709309
599 3 0.438224 0.566685 0.703637
600 4 0.476335 0.546857 0.720494
601 1 0.437237 0.550908 0.677841
602 3 0.405278 0.545034 0.693961
603 4 0.437572 0.535905 0.66915
604 1 0.376686 0.568693 0.682626
605 3 0.37272 0.575214 0.657986
606 4 0.375399 0.583639 0.691081
607 1 0.324966 0.571198 0.657087
608 3 0.300693 0.590275 0.668411
609 4 0.305417 0.558929 0.656241
610 1 0.312204 0.613289 0.649477
611 3 0.277142 0.622198 0.660962
612 4 0.319131 0.622083 0.635809
613 1 0.24714 0.605233 0.644125
614 3 0.219218 0.607322 0.663156
615 4 0.236458 0.593103 0.634149
616 1 0.245042 0.590599 0.682636
617 3 0.273405 0.582808 0.700308
618 4 0.23718 0.573668 0.682754
619 1 0.286802 0.61173 0.707608
620 3 0.273723 0.638044 0.706869
621 4 0.311076 0.611246 0.700265
622 1 0.290152 0.645477 0.733446
623 3 0.317686 0.637063 0.75116
624 4 0.265526 0.649193 0.739172
625 1 0.331647 0.666551 0.75831
626 3 0.307374 0.684186 0.771079
627 4 0.3473 0.679801 0.75359
628 1 0.304412 0.665743 0.795462
629 3 0.335842 0.667913 0.812705
630 4 0.292937 0.650578 0.800653
631 1 0.318462 0.696062 0.824094
632 3 0.284846 0.702675 0.838918
633 4 0.321018 0.712958 0.819512
634 1 0.298613 0.684556 0.861962
635 3 0.310423 0.710431 0.867464
636 4 0.305858 0.669921 0.869915
637 1 0.305382 0.706726 0.89661
638 3 0.264697 0.712254 0.900249
639 5 0.314214 0.694304 0.907108
640 1 0.267059 0.710235 0.930561
641 3 0.253186 0.735545 0.924535
642 4 0.280192 0.715417 0.94394
643 1 0.207654 0.726335 0.919676
644 3 0.194557 0.743335 0.901116
645 5 0.194561 0.712554 0.912955
646 1 0.231222 0.736145 0.882609
647 3 0.248973 0.712358 0.875138
648 4 0.252305 0.747155 0.882267
649 1 0.226604 0.712254 0.848658
650 3 0.204587 0.726069 0.830912
651 4 0.20917 0.699086 0.850884
652 1 0.23882 0.723045 0.809794
653 3 0.269845 0.705064 0.805073
654 4 0.245342 0.740265 0.809537
655 1 0.270038 0.709669 0.776206
656 3 0.272066 0.733225 0.762623
657 4 0.257629 0.696651 0.768093
658 1 0.316099 0.72675 0.751192
659 3 0.29172 0.717367 0.73199
660 5 0.302546 0.740964 0.756688
661 1 0.294611 0.743889 0.716042
662 3 0.329073 0.746936 0.70156
663 4 0.286573 0.760554 0.71464
664 1 0.316258 0.725077 0.682058
665 3 0.278253 0.720783 0.672061
666 4 0.336036 0.713478 0.685141
667 1 0.294135 0.706403 0.64815
668 3 0.327928 0.691723 0.64176
669 4 0.288565 0.719133 0.637575
670 1 0.302632 0.670925 0.625394
671 3 0.343387 0.667544 0.618993
672 4 0.284317 0.665328 0.614594
673 1 0.345044 0.693927 0.601804
674 3 0.386399 0.698093 0.605625
675 4 0.338557 0.708665 0.593797
676 1 0.381798 0.700759 0.634802
677 3 0.410778 0.686806 0.648342
678 4 0.372631 0.710985 0.646887
679 1 0.393132 0.658634 0.643194
680 3 0.400501 0.651871 0.618918
681 4 0.374429 0.646296 0.646512
682 1 0.447743 0.646054 0.622975
683 3 0.462198 0.622521 0.633272
684 4 0.470606 0.655022 0.624752
685 1 0.451568 0.605002 0.608772
686 3 0.464225 0.586478 0.626282
687 4 0.476035 0.602313 0.602531
688 1 0.423593 0.590979 0.643569
689 3 0.437131 0.583535 0.666827
690 4 0.418234 0.57406 0.640336
691 1 0.477128 0.600536 0.666474
692 3 0.500309 0.618436 0.679896
693 4 0.499991 0.592884 0.661358
694 1 0.471716 0.643053 0.674095
695 3 0.43565 0.650336 0.662856
696 4 0.490895 0.650601 0.665382
697 1 0.425285 0.672195 0.683578
698 3 0.445892 0.690857 0.697407
699 4 0.407975 0.667382 0.695448
700 1 0.432142 0.715497 0.680271
701 3 0.393591 0.725735 0.676075
702 4 0.440956 0.723034 0.666313
703 1 0.384477 0.732359 0.703979
704 3 0.408486 0.750006 0.717337
705 4 0.371415 0.720137 0.712841
706 1 0.371574 0.770191 0.722806
707 3 0.345097 0.758212 0.739236
708 4 0.356291 0.782263 0.715442
709 1 0.366233 0.770988 0.76349
710 3 0.336107 0.790573 0.762409
711 4 0.38631 0.776816 0.773316
712 1 0.306774 0.776354 0.783003
713 3 0.325707 0.788576 0.803414
714 4 0.295563 0.761639 0.788547
715 1 0.292655 0.811186 0.806979
716 3 0.280262 0.790573 0.822135
717 4 0.270532 0.820603 0.804185
718 1 0.299653 0.802957 0.846528
719 3 0.271519 0.823292 0.849065
720 4 0.321987 0.805969 0.855198
721 1 0.248621 0.809524 0.872238
722 3 0.23637 0.835838 0.875866
723 4 0.242945 0.799079 0.884911
724 1 0.279681 0.84439 0.888882
725 3 0.313861 0.853634 0.876723
726 4 0.295863 0.841585 0.901833
727 1 0.289905 0.874062 0.858548
728 3 0.306722 0.899464 0.857938
729 4 0.268258 0.880133 0.850734
730 1 0.33036 0.895794 0.884119
731 3 0.342664 0.894132 0.908876
732 4 0.315694 0.909678 0.888978
733 1 0.363659 0.865037 0.90498
734 3 0.388249 0.887427 0.907763
735 4 0.376404 0.851557 0.897616
736 1 0.403392 0.879694 0.934757
737 3 0.444165 0.878575 0.941693
738 4 0.391475 0.883849 0.948982
739 1 0.447443 0.846767 0.937369
740 3 0.425655 0.826916 0.925209
741 4 0.449876 0.842451 0.953103
742 1 0.464542 0.811751 0.914934
743 3 0.449294 0.794601 0.933023
744 4 0.490578 0.807181 0.913917
745 1 0.418587 0.779736 0.913896
746 3 0.427559 0.76711 0.891761
747 4 0.392921 0.783879 0.909818
748 1 0.440921 0.739676 0.904134
749 3 0.417406 0.717056 0.908758
750 4 0.460999 0.731875 0.912387
751 1 0.390876 0.720356 0.883872
752 3 0.421918 0.704279 0.875331
753 4 0.375364 0.728643 0.873554
754 1 0.392498 0.682328 0.864232
755 3 0.362901 0.686633 0.846271
756 4 0.385253 0.668017 0.872784
757 1 0.388302 0.672206 0.824928
758 3 0.412681 0.649678 0.822756
759 4 0.40006 0.683932 0.815049
760 1 0.378625 0.633174 0.808188
761 3 0.348358 0.63996 0.791223
762 4 0.369688 0.621667 0.819437
763 1 0.361032 0.616889 0.772053
764 3 0.338328 0.597258 0.784009
765 4 0.37725 0.607195 0.762484
766 1 0.296691 0.604621 0.770319
767 3 0.284387 0.607506 0.746065
768 4 0.278641 0.615066 0.777587
769 1 0.267095 0.577349 0.744278
770 3 0.2357 0.565369 0.757593
771 4 0.278253 0.56193 0.740467
772 1 0.200268 0.582647 0.745444
773 3 0.181195 0.56013 0.754542
774 4 0.188828 0.593749 0.734912
775 1 0.181935 0.544711 0.728522
776 3 0.163179 0.529615 0.746686
777 4 0.194698 0.537186 0.716074
778 1 0.204305 0.519412 0.759155
779 3 0.21571 0.521744 0.783806
780 4 0.224929 0.508425 0.756897
781 1 0.205803 0.553309 0.784908
782 3 0.229477 0.554405 0.80608
783 4 0.185144 0.551093 0.795226
784 1 0.269721 0.544953 0.794156
785 3 0.2834 0.568866 0.784437
786 4 0.283153 0.53063 0.789585
787 1 0.318373 0.572513 0.805148
788 3 0.349433 0.555317 0.81172
789 4 0.31208 0.581862 0.818474
790 1 0.384936 0.574799 0.802804
791 3 0.379753 0.585809 0.825913
792 4 0.398579 0.584886 0.792315
793 1 0.425021 0.578826 0.835054
794 3 0.430609 0.603975 0.824971
795 4 0.450087 0.57249 0.836285
796 1 0.42005 0.619879 0.849611
797 3 0.462233 0.619486 0.850563
798 4 0.409808 0.622452 0.864553
799 1 0.467169 0.649378 0.841026
800 3 0.448007 0.673903 0.844013
801 4 0.474696 0.649967 0.825314
802 1 0.482399 0.684671 0.862797
803 3 0.494015 0.697551 0.841144
804 4 0.504275 0.685687 0.87243
805 1 0.465036 0.723461 0.846935
806 3 0.441132 0.733802 0.865848
807 4 0.44598 0.721591 0.835354
808 1 0.465917 0.761212 0.867785
809 3 0.470483 0.785114 0.855583
810 4 0.489168 0.763497 0.875845
811 1 0.426131 0.795201 0.860014
812 3 0.435562 0.808935 0.881657
813 4 0.39939 0.795513 0.86116
814 1 0.459236 0.832329 0.867732
815 3 0.428141 0.84806 0.858495
816 4 0.482275 0.835895 0.860014
817 1 0.4329 0.871096 0.877889
818 3 0.453066 0.880364 0.857296
819 4 0.442296 0.879729 0.890862
820 1 0.411412 0.896568 0.847085
821 3 0.452291 0.898668 0.841305
822 4 0.401523 0.912402 0.851173
823 1 0.880167 0.504213 0.0956357
824 3 0.852756 0.515777 0.0792166
825 4 0.866576 0.49386 0.106114
826 1 0.849495 0.542945 0.0941693
827 3 0.829082 0.553736 0.114067
828 5 0.864036 0.55348 0.104084
829 1 0.788433 0.535605 0.110674
830 3 0.796436 0.513169 0.125177
831 4 0.769977 0.528091 0.10103
832 1 0.790354 0.528795 0.151133
833 3 0.752578 0.540394 0.154858
834 4 0.814152 0.533146 0.157716
835 1 0.755681 0.540648 0.184196
836 3 0.778279 0.552293 0.203088
837 4 0.745915 0.527722 0.193605
838 1 0.757884 0.581862 0.198197
839 3 0.717305 0.586778 0.204223
840 4 0.76081 0.594984 0.1873
841 1 0.726348 0.591187 0.233133
842 3 0.738247 0.615262 0.243526
843 4 0.733487 0.583928 0.24754
844 1 0.707363 0.633082 0.227321
845 3 0.699924 0.65359 0.244179
846 4 0.691657 0.638518 0.214905
847 1 0.679423 0.63412 0.264687
848 3 0.679705 0.606722 0.268411
849 4 0.654745 0.641264 0.263102
850 1 0.674276 0.60851 0.297878
851 3 0.650056 0.625234 0.312199
852 4 0.698955 0.605071 0.303754
853 1 0.635953 0.603028 0.331241
854 3 0.664845 0.621991 0.337738
855 4 0.633468 0.586986 0.337802
856 1 0.647782 0.626792 0.364839
857 3 0.674875 0.625718 0.38463
858 4 0.628109 0.634421 0.373552
859 1 0.68547 0.594038 0.380027
860 3 0.681186 0.577811 0.400706
861 4 0.709655 0.601863 0.381066
862 1 0.653246 0.598631 0.415349
863 3 0.630277 0.621921 0.416441
864 4 0.671297 0.603294 0.426759
865 1 0.588676 0.606802 0.422146
866 3 0.551922 0.596496 0.430173
867 5 0.590739 0.604058 0.438383
868 1 0.550195 0.573795 0.409408
869 3 0.571718 0.554094 0.421985
870 4 0.548943 0.568301 0.393824
871 1 0.53017 0.541098 0.43347
872 3 0.504222 0.524525 0.420412
873 4 0.510074 0.543464 0.444163
874 1 0.539037 0.504847 0.411185
875 3 0.524741 0.487259 0.429028
876 4 0.561864 0.495672 0.409441
877 1 0.480107 0.485296 0.417393
878 3 0.494615 0.462953 0.404945
879 4 0.456715 0.490975 0.411196
880 1 0.473673 0.442213 0.423997
881 3 0.437536 0.443194 0.410554
882 4 0.47697 0.435796 0.439164
883 1 0.428899 0.411802 0.412662
884 3 0.388091 0.419154 0.414064
885 4 0.433623 0.39419 0.411999
886 1 0.384072 0.414272 0.442975
887 3 0.37413 0.43283 0.461149
888 4 0.382855 0.402638 0.455294
889 1 0.384195 0.458059 0.444623
890 3 0.356326 0.478256 0.439582
891 4 0.407252 0.467027 0.442568
892 1 0.338099 0.464095 0.415766
893 3 0.366761 0.468065 0.397399
894 5 0.331249 0.44763 0.41116
895 1 0.332617 0.474067 0.375714
896 3 0.331559 0.501766 0.37764
897 4 0.308326 0.471424 0.369153
898 1 0.37249 0.505598 0.360504
899 3 0.35072 0.529303 0.36287
900 4 0.369829 0.508252 0.344363
901 1 0.366233 0.534797 0.390688
902 3 0.389096 0.557002 0.397784
903 4 0.365968 0.530065 0.406583
904 1 0.409843 0.560661 0.371197
905 3 0.421072 0.546396 0.350293
906 5 0.392246 0.567367 0.360295
907 1 0.464225 0.56118 0.34751
908 3 0.493134 0.573425 0.362506
909 5 0.470116 0.545575 0.354543
910 1 0.52987 0.569605 0.342672
911 3 0.540112 0.585209 0.322368