LAMMPS protain data file

         360  atoms
         476  bonds
           0  angles
           0  dihedrals
           0  impropers

           5  atom types
           5  bond types
           0  angle types
           0  dihedral types
           0  improper types

-200.0	200.0	xlo xhi
-200.0	200.0	ylo yhi
-200.0	200.0	zlo zhi

Masses

           1	27.0
           2	14.0
           3	28.0
           4	60.0
           5	60.0

Atoms

           1	1	1	1	0.0	115.62599945	130.17199707	101.04299927
           2	1	1	3	0.0	115.90399933	131.69999695	102.88400269
           3	1	1	4	0.0	115.96900177	128.69200134	101.15000153
           4	1	2	1	0.0	113.8259964	130.62399292	104.35500336
           5	1	2	3	0.0	111.93399811	129.19000244	104.19799805
           6	1	2	4	0.0	113.15799713	131.98899841	104.23400116
           7	1	3	1	0.0	112.13200378	128.27400208	106.81700134
           8	1	3	3	0.0	112.49199677	129.66900635	108.71700287
           9	1	3	4	0.0	112.75499725	126.90200043	107.05799866
          10	1	4	1	0.0	110.0019989	129.12399292	109.84799957
          11	1	4	3	0.0	108.1309967	127.72599792	110.36100006
          12	1	4	4	0.0	109.05000305	130.26699829	109.51200104
          13	1	5	1	0.0	109.43199921	126.37200165	112.41300201
          14	1	5	3	0.0	108.81700134	128.11999512	113.94000244
          15	1	5	4	0.0	110.52500153	125.4469986	112.93900299
          16	1	6	1	0.0	107.11000061	126.50299835	115.40299988
          17	1	6	3	0.0	105.70400238	124.59899902	115.80200195
          18	1	6	4	0.0	105.90599823	127.35099792	115.08699799
          19	1	7	1	0.0	107.28199768	123.63500214	117.90000153
          20	1	7	3	0.0	106.71299744	124.97499847	119.81400299
          21	1	7	4	0.0	108.62200165	122.98200226	118.22200012
          22	1	8	1	0.0	104.95200348	123.12799835	120.85700226
          23	1	8	3	0.0	104.18499756	120.89399719	121.19799805
          24	1	8	4	0.0	103.52999878	123.61199951	120.6230011
          25	1	9	1	0.0	105.98500061	120.39399719	123.29299927
          26	1	9	3	0.0	104.82700348	121.46099854	125.08699799
          27	1	9	4	0.0	107.44999695	120.21199799	123.6780014
          28	1	10	1	0.0	103.83000183	119.03500366	126.1309967
          29	1	10	3	0.0	104.45700073	116.73400116	126.17199707
          30	1	10	4	0.0	102.33499908	118.91000366	125.82099915
          31	1	11	1	0.0	105.30899811	116.80599976	128.83099365
          32	1	11	3	0.0	104.0059967	117.42199707	130.7559967
          33	1	11	4	0.0	106.77300262	117.18499756	129.06500244
          34	1	12	1	0.0	104.01899719	114.91600037	131.86500549
          35	1	12	3	0.0	104.47399902	112.57499695	132.04499817
          36	1	12	4	0.0	102.54799652	114.6210022	131.66400146
          37	1	13	1	0.0	106.36599731	112.89099884	134.07299805
          38	1	13	3	0.0	105.46499634	113.73799896	136.13499451
          39	1	13	4	0.0	107.87200165	113.12200165	133.9750061
          40	1	14	1	0.0	105.74500275	111.26699829	137.46499634
          41	1	14	3	0.0	107.19400024	109.33799744	137.60099792
          42	1	14	4	0.0	104.40599823	110.53800201	137.50999451
          43	1	15	1	0.0	108.43800354	110.15799713	139.90499878
          44	1	15	3	0.0	107.09300232	110.14199829	141.88800049
          45	1	15	4	0.0	109.58699799	111.10500336	140.23199463
          46	1	16	1	0.0	108.01300049	107.63899994	142.73800659
          47	1	16	3	0.0	110.09500122	106.48000336	142.93200684
          48	1	16	4	0.0	107.1969986	106.37999725	142.48899841
          49	1	17	1	0.0	110.78099823	107.68000031	145.33999634
          50	1	17	3	0.0	109.43199921	107.06800079	147.21800232
          51	1	17	4	0.0	111.42199707	109.01599884	145.70899963
          52	1	18	1	0.0	111.24900055	105.16400146	148.16200256
          53	1	18	3	0.0	113.45300293	104.28099823	148.44400024
          54	1	18	4	0.0	110.73100281	103.75299835	147.88299561
          55	1	19	1	0.0	114.14099884	106.04100037	150.45199585
          56	1	19	3	0.0	113.21600342	104.50700378	152.03100586
          57	1	19	5	0.0	114.64780544	104.8641735	149.59769753
          58	1	20	1	0.0	115.53800201	104.38899994	153.57200623
          59	1	20	3	0.0	117.89700317	104.72299957	153.51899719
          60	1	20	4	0.0	115.52100372	102.89099884	153.31700134
          61	1	21	1	0.0	118.0530014	105.61399841	156.14599609
          62	1	21	3	0.0	117.21600342	104.31300354	157.97200012
          63	1	21	4	0.0	118.03600311	107.10099792	156.44999695
          64	1	22	1	0.0	119.7460022	104.05500031	159.17100525
          65	1	22	3	0.0	121.9940033	104.80999756	159.45799255
          66	1	22	4	0.0	120.21700287	102.62200165	158.92300415
          67	1	23	1	0.0	121.44999695	106.30699921	161.71200562
          68	1	23	3	0.0	121.1210022	104.72899628	163.48300171
          69	1	23	4	0.0	120.87000275	107.64700317	162.13900757
          70	1	24	1	0.0	123.72599792	104.96700287	164.44999695
          71	1	24	3	0.0	125.66600037	105.6269989	165.71499634
          72	1	24	4	0.0	124.61599731	103.85900116	163.91299438
          73	1	25	1	0.0	124.51899719	107.93800354	166.69000244
          74	1	25	3	0.0	124.39900208	106.31600189	168.46899414
          75	1	25	4	0.0	123.58300018	109.10500336	166.96899414
          76	1	26	1	0.0	126.54499817	107.42500305	169.86199951
          77	1	26	3	0.0	128.32099915	109.01699829	169.87399292
          78	1	26	4	0.0	127.40899658	106.2009964	169.58900452
          79	1	27	1	0.0	127.68800354	110.01699829	172.39399719
          80	1	27	3	0.0	128.22399902	108.76599884	174.36500549
          81	1	27	4	0.0	126.64299774	110.94100189	173.01600647
          82	1	28	1	0.0	130.91299438	109.39700317	174.29800415
          83	1	28	3	0.0	130.83900452	109.46499634	176.68699646
          84	1	28	4	0.0	132.32000732	109.5490036	173.70799255
          85	1	29	1	0.0	130.77400208	112.31099701	176.79800415
          86	1	29	3	0.0	132.1230011	112.85800171	178.71600342
          87	1	29	4	0.0	129.48199463	112.04299927	177.59199524
          88	1	30	1	0.0	134.18899536	111.14199829	178.08799744
          89	1	30	3	0.0	135.62399292	112.93199921	178.7480011
          90	1	30	4	0.0	134.80599976	109.7559967	177.83700562
          91	1	31	1	0.0	136.70399475	113.46700287	176.31500244
          92	1	31	3	0.0	137.02799988	115.44200134	177.62600708
          93	1	31	4	0.0	136.93899536	113.41100311	174.79800415
          94	1	32	1	0.0	134.63900757	116.61000061	176.82000732
          95	1	32	3	0.0	132.6289978	115.50900269	176.09700012
          96	1	32	4	0.0	135.3500061	117.89199829	176.34899902
          97	1	33	1	0.0	130.99099731	117.61100006	176.84300232
          98	1	33	3	0.0	130.42900085	117.7990036	174.51499939
          99	1	33	4	0.0	130.45300293	118.99099731	177.20899963
         100	1	34	1	0.0	128.80499268	115.44300079	174.602005
         101	1	34	3	0.0	128.76800537	115.95800018	172.24299622
         102	1	34	4	0.0	127.53399658	116.29199982	174.66099548
         103	1	35	1	0.0	131.17700195	114.73999786	171.69999695
         104	1	35	3	0.0	131.68899536	112.57099915	170.75700378
         105	1	35	4	0.0	132.67599487	114.90499878	171.86700439
         106	1	36	1	0.0	129.11700439	112.16899872	169.83599854
         107	1	36	3	0.0	129.86999512	113.09400177	167.76199341
         108	1	36	5	0.0	130.42894138	111.44434062	170.18996461
         109	1	37	1	0.0	129.72900391	110.65299988	166.41000366
         110	1	37	3	0.0	128.66900635	108.53399658	166.07800293
         111	1	37	4	0.0	131.1269989	110.02100372	166.31199646
         112	1	38	1	0.0	126.80799866	109.52500153	164.23699951
         113	1	38	3	0.0	128.08599854	109.80799866	162.23100281
         114	1	38	4	0.0	125.52200317	110.33999634	164.14100647
         115	1	39	1	0.0	127.07099915	107.51499939	161.01600647
         116	1	39	3	0.0	125.47000122	105.8030014	160.60800171
         117	1	39	4	0.0	128.13999939	106.43000031	161.10499573
         118	1	40	1	0.0	124.01499939	107.28500366	158.77099609
         119	1	40	3	0.0	125.49199677	106.64700317	156.98399353
         120	1	40	4	0.0	123.04199982	108.44499969	158.55499268
         121	1	41	1	0.0	123.47799683	105.3219986	155.56700134
         122	1	41	3	0.0	121.15499878	104.83399963	155.35299683
         123	1	41	4	0.0	123.89800262	103.8809967	155.82600403
         124	1	42	1	0.0	120.86199951	106.16100311	152.95599365
         125	1	42	3	0.0	121.73999786	104.51899719	151.43299866
         126	1	42	4	0.0	120.7460022	107.58799744	152.41799927
         127	1	43	1	0.0	119.31400299	104.28099823	150.06799316
         128	1	43	3	0.0	116.97799683	104.68099976	150.29299927
         129	1	43	4	0.0	119.34400177	102.77300262	150.29699707
         130	1	44	1	0.0	116.63600159	105.47499847	147.67799377
         131	1	44	3	0.0	117.32900238	104.08200073	145.85099792
         132	1	44	4	0.0	116.6230011	106.9940033	147.54699707
         133	1	45	1	0.0	114.95899963	104.40200043	144.45300293
         134	1	45	3	0.0	112.76300049	105.29699707	144.22000122
         135	1	45	4	0.0	114.44000244	102.99099731	144.66000366
         136	1	46	1	0.0	113.39399719	106.83799744	141.98800659
         137	1	46	3	0.0	113.89700317	105.5019989	140.07400513
         138	1	46	4	0.0	114.02600098	108.19599915	141.71000671
         139	1	47	1	0.0	111.29000092	105.52799988	139.10800171
         140	1	47	3	0.0	109.16999817	106.57299805	138.74099731
         141	1	47	4	0.0	110.59700012	104.22499847	139.47599792
         142	1	48	1	0.0	110.05999756	108.18599701	136.69099426
         143	1	48	3	0.0	110.01399994	106.60900116	134.88999939
         144	1	48	4	0.0	110.87799835	109.4260025	136.35899353
         145	1	49	1	0.0	107.80899811	107.80500031	133.647995
         146	1	49	3	0.0	106.26499939	109.56800079	133.16099548
         147	1	49	4	0.0	106.64199829	106.87999725	133.94099426
         148	1	50	1	0.0	107.83599854	110.64600372	131.125
         149	1	50	3	0.0	107.5	109.10900116	129.31500244
         150	1	50	4	0.0	109.09300232	111.45800018	130.82400513
         151	1	51	1	0.0	105.8239975	110.84200287	127.91699982
         152	1	51	3	0.0	104.34899902	112.71700287	127.6309967
         153	1	51	4	0.0	104.68199921	109.84100342	127.87400055
         154	1	52	1	0.0	106.10800171	114.06300354	125.9240036
         155	1	52	3	0.0	105.00900269	112.87799835	124.13899994
         156	1	52	4	0.0	107.44799805	114.76200104	125.71800232
         157	1	53	1	0.0	104.46399689	115.18000031	122.7009964
         158	1	53	3	0.0	104.29299927	117.55200195	122.65499878
         159	1	53	4	0.0	102.98400116	114.96099854	122.88899994
         160	1	54	1	0.0	105.65299988	117.82499695	120.25499725
         161	1	54	3	0.0	104.76899719	116.76599884	118.29299927
         162	1	54	4	0.0	107.15499878	118.04499817	120.08599854
         163	1	55	1	0.0	104.00800323	119.15100098	117.10600281
         164	1	55	3	0.0	104.37000275	121.47100067	116.66899872
         165	1	55	4	0.0	102.50900269	119.37599945	117.23300171
         166	1	56	1	0.0	106.30200195	120.98000336	114.68599701
         167	1	56	3	0.0	104.88200378	120.46700287	112.82800293
         168	1	56	4	0.0	107.69599915	120.44300079	114.39600372
         169	1	57	1	0.0	105.09400177	123.02700043	111.70500183
         170	1	57	3	0.0	106.49199677	124.96099854	111.57900238
         171	1	57	4	0.0	103.77600098	123.73899841	112.02300262
         172	1	58	1	0.0	107.34200287	124.42199707	108.97899628
         173	1	58	3	0.0	105.88600159	124.46700287	107.07800293
         174	1	58	4	0.0	108.47299957	123.50499725	108.53500366
         175	1	59	1	0.0	106.64399719	127.06999969	106.3259964
         176	1	59	3	0.0	108.46499634	128.50700378	105.75700378
         177	1	59	4	0.0	105.86599731	128.30200195	106.72799683
         178	1	60	1	0.0	109.51200104	126.79000092	103.84999847
         179	1	60	3	0.0	108.41699982	127.16899872	101.75800323
         180	1	60	4	0.0	110.14399719	125.43800354	103.53399658
         181	1	61	1	0.0	109.92900085	129.45199585	101.16699982
         182	1	61	3	0.0	112.24199677	129.04499817	100.76200104
         183	1	61	4	0.0	110.06900024	130.95399475	101.41799927
         184	2	62	1	0.0	125.38899994	128.78700256	104.35500336
         185	2	62	3	0.0	123.08799744	129.37199402	104.19799805
         186	2	62	4	0.0	126.04000092	130.16099548	104.23400116
         187	2	63	1	0.0	122.4960022	128.64599609	106.81700134
         188	2	63	3	0.0	123.81099701	129.23399353	108.71700287
         189	2	63	4	0.0	121.81199646	127.30400085	107.05799866
         190	2	64	1	0.0	121.83200073	130.84100342	109.84799957
         191	2	64	3	0.0	119.57299805	131.43200684	110.36100006
         192	2	64	4	0.0	122.13200378	132.29800415	109.51200104
         193	2	65	1	0.0	119.32499695	129.57099915	112.41300201
         194	2	65	3	0.0	120.30799866	131.14100647	113.94000244
         195	2	65	4	0.0	119.28299713	128.13999939	112.93900299
         196	2	66	1	0.0	117.98000336	131.46800232	115.40299988
         197	2	66	3	0.0	115.61499786	131.38000488	115.80200195
         198	2	66	4	0.0	117.89299774	132.93800354	115.08699799
         199	2	67	1	0.0	115.84400177	129.54499817	117.90000153
         200	2	67	3	0.0	116.53700256	130.82600403	119.81400299
         201	2	67	4	0.0	116.16999817	128.08999634	118.22200012
         202	2	68	1	0.0	113.9960022	131.05099487	120.85700226
         203	2	68	3	0.0	111.77100372	130.25799561	121.19799805
         204	2	68	4	0.0	113.48799896	132.46400452	120.6230011
         205	2	69	1	0.0	112.50299835	128.53900146	123.29299927
         206	2	69	3	0.0	112.61399841	130.10899353	125.08699799
         207	2	69	4	0.0	113.27400208	127.27999878	123.6780014
         208	2	70	1	0.0	110.09600067	129.3769989	126.1309967
         209	2	70	3	0.0	108.68800354	127.4509964	126.17199707
         210	2	70	4	0.0	109.06600189	130.46800232	125.82099915
         211	2	71	1	0.0	109.27600098	126.83000183	128.83099365
         212	2	71	3	0.0	108.94499969	128.23300171	130.7559967
         213	2	71	4	0.0	110.48500061	125.92199707	129.06500244
         214	2	72	1	0.0	106.99299622	126.66000366	131.86500549
         215	2	72	3	0.0	105.44599915	124.84500122	132.04499817
         216	2	72	4	0.0	105.84500122	127.62599945	131.66400146
         217	2	73	1	0.0	106.87400055	123.56300354	134.07299805
         218	2	73	3	0.0	106.97399902	124.79499817	136.13499451
         219	2	73	4	0.0	107.99299622	122.52899933	133.9750061
         220	2	74	1	0.0	105.21700287	123.03600311	137.46499634
         221	2	74	3	0.0	104.61199951	120.69999695	137.60099792
         222	2	74	4	0.0	103.81199646	123.62799835	137.50999451
         223	2	75	1	0.0	106.02899933	120.23899841	139.90499878
         224	2	75	3	0.0	105.1780014	121.28099823	141.88800049
         225	2	75	4	0.0	107.48500061	119.93099976	140.23199463
         226	2	76	1	0.0	103.79499817	119.00099945	142.73800659
         227	2	76	3	0.0	104.18599701	116.65000153	142.93200684
         228	2	76	4	0.0	102.3010025	118.85399628	142.48899841
         229	2	77	1	0.0	105.55200195	116.86199951	145.33999634
         230	2	77	3	0.0	104.23200226	117.53500366	147.21800232
         231	2	77	4	0.0	106.9960022	117.19300079	145.70899963
         232	2	78	1	0.0	103.8769989	114.9280014	148.16200256
         233	2	78	3	0.0	104.56099701	112.65399933	148.44400024
         234	2	78	4	0.0	102.4509964	114.45300293	147.88299561
         235	2	79	1	0.0	106.36599731	113.21399689	150.45199585
         236	2	79	3	0.0	104.58899689	112.98000336	152.03100586
         237	2	79	5	0.0	105.76326215	112.08346761	149.59747033
         238	2	80	1	0.0	105.94499969	111.09100342	153.57200623
         239	2	80	3	0.0	107.67700195	109.45500183	153.51899719
         240	2	80	4	0.0	104.76300049	110.17099762	153.31700134
         241	2	81	1	0.0	108.47100067	109.88899994	156.14599609
         242	2	81	3	0.0	106.93199921	109.73200226	157.97200012
         243	2	81	4	0.0	109.6230011	110.82900238	156.44999695
         244	2	82	1	0.0	108.30799866	107.59300232	159.17100525
         245	2	82	3	0.0	110.2990036	106.30599976	159.45799255
         246	2	82	4	0.0	107.48100281	106.33200073	158.92300415
         247	2	83	1	0.0	111.1309967	107.66400146	161.71200562
         248	2	83	3	0.0	109.69200134	106.93900299	163.48300171
         249	2	83	4	0.0	111.81700134	108.95400238	162.13900757
         250	2	84	1	0.0	111.5019989	105.05000305	164.44999695
         251	2	84	3	0.0	113.22799683	103.94400024	165.71499634
         252	2	84	4	0.0	111.19100189	103.66300201	163.91299438
         253	2	85	1	0.0	114.31900024	106.28299713	166.69000244
         254	2	85	3	0.0	112.97699738	105.36499786	168.46899414
         255	2	85	4	0.0	114.64900208	107.74199677	166.96899414
         256	2	86	1	0.0	115.18199921	104.37799835	169.86199951
         257	2	86	3	0.0	117.53299713	103.98200226	169.87399292
         258	2	86	4	0.0	114.76300049	102.93900299	169.58900452
         259	2	87	1	0.0	117.92099762	105.09999847	172.39399719
         260	2	87	3	0.0	117.27700043	103.90200043	174.36500549
         261	2	87	4	0.0	117.99199677	106.4940033	173.01600647
         262	2	88	1	0.0	119.44599915	102.19300079	174.29800415
         263	2	88	3	0.0	119.45400238	102.29299927	176.68699646
         264	2	88	4	0.0	120.44300079	101.18800354	173.70799255
         265	2	89	1	0.0	121.63899994	104.11799622	176.79800415
         266	2	89	3	0.0	122.90699768	103.40399933	178.71600342
         267	2	89	4	0.0	120.6230011	104.96099854	177.59199524
         268	2	90	1	0.0	122.85399628	100.72000122	178.08799744
         269	2	90	3	0.0	125.14800262	100.71399689	178.7480011
         270	2	90	4	0.0	122.15399933	99.3730011	177.83700562
         271	2	91	1	0.0	126.23899841	100.20300293	176.31500244
         272	2	91	3	0.0	127.98600006	101.18099976	177.62600708
         273	2	91	4	0.0	126.34200287	99.98400116	174.79800415
         274	2	92	1	0.0	127.40899658	103.77700043	176.82000732
         275	2	92	3	0.0	125.29499817	104.66200256	176.09700012
         276	2	92	4	0.0	128.85499573	104.01999664	176.34899902
         277	2	93	1	0.0	125.91799927	107.25299835	176.84300232
         278	2	93	3	0.0	125.71399689	107.80999756	174.51499939
         279	2	93	4	0.0	126.66100311	108.53399658	177.20899963
         280	2	94	1	0.0	122.86000061	107.61000061	174.602005
         281	2	94	3	0.0	123.23899841	107.95999908	172.24299622
         282	2	94	4	0.0	122.73100281	109.13400269	174.66099548
         283	2	95	1	0.0	123.78800201	105.31800079	171.69999695
         284	2	95	3	0.0	122.41200256	103.56500244	170.75700378
         285	2	95	4	0.0	124.85199738	104.24900055	171.86700439
         286	2	96	1	0.0	120.4940033	105.32499695	169.83599854
         287	2	96	3	0.0	121.68599701	105.31300354	167.76199341
         288	2	96	5	0.0	120.74574167	103.84749356	170.18985093
         289	2	97	1	0.0	119.69000244	103.90200043	166.41000366
         290	2	97	3	0.0	117.3730011	103.40899658	166.07800293
         291	2	97	4	0.0	120.06800079	102.41500092	166.31199646
         292	2	98	1	0.0	116.98799896	105.48200226	164.23699951
         293	2	98	3	0.0	118.00499725	104.65899658	162.23100281
         294	2	98	4	0.0	116.82299805	106.99500275	164.14100647
         295	2	99	1	0.0	115.58000183	104.02400208	161.01600647
         296	2	99	3	0.0	113.24299622	104.20700073	160.60800171
         297	2	99	4	0.0	115.39800262	102.51100159	161.10499573
         298	2	100	1	0.0	113.49500275	106.26899719	158.77099609
         299	2	100	3	0.0	113.91600037	104.71600342	156.98399353
         300	2	100	4	0.0	113.79499817	107.75299835	158.55499268
         301	2	101	1	0.0	111.625	105.46499634	155.56700134
         302	2	101	3	0.0	109.79499817	106.97699738	155.35299683
         303	2	101	4	0.0	110.76000214	104.23799896	155.82600403
         304	2	102	1	0.0	110.64900208	108.03299713	152.95599365
         305	2	102	3	0.0	109.91400146	106.3239975	151.43299866
         306	2	102	4	0.0	111.69300079	109.01399994	152.41799927
         307	2	103	1	0.0	108.21499634	108.0719986	150.06799316
         308	2	103	3	0.0	107.0719986	110.14700317	150.29299927
         309	2	103	4	0.0	107.05500031	107.10800171	150.29699707
         310	2	104	1	0.0	107.47899628	110.91000366	147.67799377
         311	2	104	3	0.0	106.82099915	109.5	145.85099792
         312	2	104	4	0.0	108.65799713	111.86699677	147.54699707
         313	2	105	1	0.0	105.59500122	111.55200195	144.45300293
         314	2	105	3	0.0	104.92500305	113.82700348	144.22000122
         315	2	105	4	0.0	104.16799927	111.07800293	144.66000366
         316	2	106	1	0.0	106.52300262	114.29399872	141.98800659
         317	2	106	3	0.0	105.79199982	113.06800079	140.07400513
         318	2	106	4	0.0	107.97899628	114.64700317	141.71000671
         319	2	107	1	0.0	104.18699646	115.12200165	139.10800171
         320	2	107	3	0.0	103.68199921	117.43199921	138.74099731
         321	2	107	4	0.0	102.73600006	114.85199738	139.47599792
         322	2	108	1	0.0	105.4980011	117.74199677	136.69099426
         323	2	108	3	0.0	104.23699951	116.79399872	134.88999939
         324	2	108	4	0.0	106.97799683	117.875	136.35899353
         325	2	109	1	0.0	103.79699707	119.26399994	133.647995
         326	2	109	3	0.0	104.21299744	121.56999969	133.16099548
         327	2	109	4	0.0	102.34600067	119.59899902	133.94099426
         328	2	110	1	0.0	106.03500366	121.01399994	131.125
         329	2	110	3	0.0	104.62400055	120.31800079	129.31500244
         330	2	110	4	0.0	107.45300293	120.53700256	130.82400513
         331	2	111	1	0.0	104.93399811	122.70899963	127.91699982
         332	2	111	3	0.0	105.48000336	125.03099823	127.6309967
         333	2	111	4	0.0	103.43900299	122.97799683	127.87400055
         334	2	112	1	0.0	107.6289978	124.49500275	125.9240036
         335	2	112	3	0.0	106.01799774	124.61599731	124.13899994
         336	2	112	4	0.0	109.01100159	123.88400269	125.71800232
         337	2	113	1	0.0	107.47799683	126.47699738	122.7009964
         338	2	113	3	0.0	109.22499847	128.08900452	122.65499878
         339	2	113	4	0.0	106.38400269	127.4980011	122.88899994
         340	2	114	1	0.0	110.28700256	127.1969986	120.25499725
         341	2	114	3	0.0	108.90699768	127.22699738	118.29299927
         342	2	114	4	0.0	111.39499664	126.16000366	120.08599854
         343	2	115	1	0.0	110.29799652	129.30900574	117.10600281
         344	2	115	3	0.0	112.33799744	130.4730072	116.66899872
         345	2	115	4	0.0	109.53900146	130.62199402	117.23300171
         346	2	116	1	0.0	113.15799713	128.65699768	114.68599701
         347	2	116	3	0.0	111.87200165	129.44700623	112.82800293
         348	2	116	4	0.0	113.60700226	127.23100281	114.39600372
         349	2	117	1	0.0	114.00499725	130.8769989	111.70500183
         350	2	117	3	0.0	116.38899994	130.99000549	111.57900238
         351	2	117	4	0.0	113.73999786	132.35099792	112.02300262
         352	2	118	1	0.0	116.49700165	129.98899841	108.97899628
         353	2	118	3	0.0	115.625	131.15600586	107.07800293
         354	2	118	4	0.0	116.48500061	128.53300476	108.53500366
         355	2	119	1	0.0	118.13300323	132.18600464	106.3259964
         356	2	119	3	0.0	120.39099884	131.65800476	105.75700378
         357	2	119	4	0.0	118.61000061	133.56300354	106.72799683
         358	2	120	1	0.0	119.70200348	129.76899719	103.84999847
         359	2	120	3	0.0	119.31500244	130.86199951	101.75800323
         360	2	120	4	0.0	119.03800201	128.43200684	103.53399658

Bond Coeffs

           1	200.0	3.77
           2	200.0	2.41
           3	200.0	2.50
           4	200.0	1.54
           5	200.0	1.54
Bonds

           1	2	1	2
           2	4	1	3
           3	1	1	4
           4	3	2	4
           5	2	4	5
           6	4	4	6
           7	1	4	7
           8	3	5	7
           9	2	7	8
          10	4	7	9
          11	1	7	10
          12	3	8	10
          13	2	10	11
          14	4	10	12
          15	1	10	13
          16	3	11	13
          17	2	13	14
          18	4	13	15
          19	1	13	16
          20	3	14	16
          21	2	16	17
          22	4	16	18
          23	1	16	19
          24	3	17	19
          25	2	19	20
          26	4	19	21
          27	1	19	22
          28	3	20	22
          29	2	22	23
          30	4	22	24
          31	1	22	25
          32	3	23	25
          33	2	25	26
          34	4	25	27
          35	1	25	28
          36	3	26	28
          37	2	28	29
          38	4	28	30
          39	1	28	31
          40	3	29	31
          41	2	31	32
          42	4	31	33
          43	1	31	34
          44	3	32	34
          45	2	34	35
          46	4	34	36
          47	1	34	37
          48	3	35	37
          49	2	37	38
          50	4	37	39
          51	1	37	40
          52	3	38	40
          53	2	40	41
          54	4	40	42
          55	1	40	43
          56	3	41	43
          57	2	43	44
          58	4	43	45
          59	1	43	46
          60	3	44	46
          61	2	46	47
          62	4	46	48
          63	1	46	49
          64	3	47	49
          65	2	49	50
          66	4	49	51
          67	1	49	52
          68	3	50	52
          69	2	52	53
          70	4	52	54
          71	1	52	55
          72	3	53	55
          73	2	55	56
          74	5	55	57
          75	1	55	58
          76	3	56	58
          77	2	58	59
          78	4	58	60
          79	1	58	61
          80	3	59	61
          81	2	61	62
          82	4	61	63
          83	1	61	64
          84	3	62	64
          85	2	64	65
          86	4	64	66
          87	1	64	67
          88	3	65	67
          89	2	67	68
          90	4	67	69
          91	1	67	70
          92	3	68	70
          93	2	70	71
          94	4	70	72
          95	1	70	73
          96	3	71	73
          97	2	73	74
          98	4	73	75
          99	1	73	76
         100	3	74	76
         101	2	76	77
         102	4	76	78
         103	1	76	79
         104	3	77	79
         105	2	79	80
         106	4	79	81
         107	1	79	82
         108	3	80	82
         109	2	82	83
         110	4	82	84
         111	1	82	85
         112	3	83	85
         113	2	85	86
         114	4	85	87
         115	1	85	88
         116	3	86	88
         117	2	88	89
         118	4	88	90
         119	1	88	91
         120	3	89	91
         121	2	91	92
         122	4	91	93
         123	1	91	94
         124	3	92	94
         125	2	94	95
         126	4	94	96
         127	1	94	97
         128	3	95	97
         129	2	97	98
         130	4	97	99
         131	1	97	100
         132	3	98	100
         133	2	100	101
         134	4	100	102
         135	1	100	103
         136	3	101	103
         137	2	103	104
         138	4	103	105
         139	1	103	106
         140	3	104	106
         141	2	106	107
         142	5	106	108
         143	1	106	109
         144	3	107	109
         145	2	109	110
         146	4	109	111
         147	1	109	112
         148	3	110	112
         149	2	112	113
         150	4	112	114
         151	1	112	115
         152	3	113	115
         153	2	115	116
         154	4	115	117
         155	1	115	118
         156	3	116	118
         157	2	118	119
         158	4	118	120
         159	1	118	121
         160	3	119	121
         161	2	121	122
         162	4	121	123
         163	1	121	124
         164	3	122	124
         165	2	124	125
         166	4	124	126
         167	1	124	127
         168	3	125	127
         169	2	127	128
         170	4	127	129
         171	1	127	130
         172	3	128	130
         173	2	130	131
         174	4	130	132
         175	1	130	133
         176	3	131	133
         177	2	133	134
         178	4	133	135
         179	1	133	136
         180	3	134	136
         181	2	136	137
         182	4	136	138
         183	1	136	139
         184	3	137	139
         185	2	139	140
         186	4	139	141
         187	1	139	142
         188	3	140	142
         189	2	142	143
         190	4	142	144
         191	1	142	145
         192	3	143	145
         193	2	145	146
         194	4	145	147
         195	1	145	148
         196	3	146	148
         197	2	148	149
         198	4	148	150
         199	1	148	151
         200	3	149	151
         201	2	151	152
         202	4	151	153
         203	1	151	154
         204	3	152	154
         205	2	154	155
         206	4	154	156
         207	1	154	157
         208	3	155	157
         209	2	157	158
         210	4	157	159
         211	1	157	160
         212	3	158	160
         213	2	160	161
         214	4	160	162
         215	1	160	163
         216	3	161	163
         217	2	163	164
         218	4	163	165
         219	1	163	166
         220	3	164	166
         221	2	166	167
         222	4	166	168
         223	1	166	169
         224	3	167	169
         225	2	169	170
         226	4	169	171
         227	1	169	172
         228	3	170	172
         229	2	172	173
         230	4	172	174
         231	1	172	175
         232	3	173	175
         233	2	175	176
         234	4	175	177
         235	1	175	178
         236	3	176	178
         237	2	178	179
         238	4	178	180
         239	1	178	181
         240	3	179	181
         241	2	181	182
         242	4	181	183
         243	2	184	185
         244	4	184	186
         245	1	184	187
         246	3	185	187
         247	2	187	188
         248	4	187	189
         249	1	187	190
         250	3	188	190
         251	2	190	191
         252	4	190	192
         253	1	190	193
         254	3	191	193
         255	2	193	194
         256	4	193	195
         257	1	193	196
         258	3	194	196
         259	2	196	197
         260	4	196	198
         261	1	196	199
         262	3	197	199
         263	2	199	200
         264	4	199	201
         265	1	199	202
         266	3	200	202
         267	2	202	203
         268	4	202	204
         269	1	202	205
         270	3	203	205
         271	2	205	206
         272	4	205	207
         273	1	205	208
         274	3	206	208
         275	2	208	209
         276	4	208	210
         277	1	208	211
         278	3	209	211
         279	2	211	212
         280	4	211	213
         281	1	211	214
         282	3	212	214
         283	2	214	215
         284	4	214	216
         285	1	214	217
         286	3	215	217
         287	2	217	218
         288	4	217	219
         289	1	217	220
         290	3	218	220
         291	2	220	221
         292	4	220	222
         293	1	220	223
         294	3	221	223
         295	2	223	224
         296	4	223	225
         297	1	223	226
         298	3	224	226
         299	2	226	227
         300	4	226	228
         301	1	226	229
         302	3	227	229
         303	2	229	230
         304	4	229	231
         305	1	229	232
         306	3	230	232
         307	2	232	233
         308	4	232	234
         309	1	232	235