ITEM: TIMESTEP
0
ITEM: NUMBER OF ATOMS
360
ITEM: BOX BOUNDS ss ss ss
1.0226099450000000e+02 1.3706800788000001e+02
9.9332993099999996e+01 1.3360301154000001e+02
1.0072199304000000e+02 1.7878800910000001e+02
ITEM: ATOMS id type xs ys zs
1 1 0.383974 0.899883 0.00411198
2 3 0.391961 0.94447 0.0276946
3 4 0.393829 0.856697 0.00548265
4 1 0.332261 0.913072 0.0465377
5 3 0.277904 0.871228 0.0445265
6 4 0.313069 0.952903 0.0449877
7 1 0.283593 0.844499 0.0780751
8 3 0.293935 0.885206 0.102413
9 4 0.301491 0.804464 0.0811621
10 1 0.222398 0.869302 0.116901
11 3 0.168644 0.828509 0.123473
12 4 0.195047 0.902655 0.112597
13 1 0.206022 0.788999 0.149758
14 3 0.188353 0.840005 0.169318
15 4 0.237424 0.762007 0.156496
16 1 0.139311 0.792821 0.188059
17 3 0.0989171 0.737263 0.19317
18 4 0.10472 0.817566 0.184011
19 1 0.144253 0.709133 0.220045
20 3 0.127905 0.748234 0.244562
21 4 0.182751 0.690079 0.224169
22 1 0.0773123 0.694339 0.257923
23 3 0.0552763 0.629151 0.262291
24 4 0.0364583 0.708462 0.254925
25 1 0.10699 0.614561 0.289127
26 3 0.073721 0.645696 0.312108
27 4 0.149079 0.60925 0.294059
28 1 0.0450773 0.574905 0.325481
29 3 0.0630909 0.507762 0.326006
30 4 0.00212614 0.571258 0.32151
31 1 0.0875687 0.509863 0.360067
32 3 0.0501336 0.527838 0.384726
33 4 0.129629 0.520922 0.363065
34 1 0.0505071 0.454713 0.398932
35 3 0.0635793 0.386402 0.401237
36 4 0.00824552 0.446104 0.396357
37 1 0.117936 0.395623 0.427215
38 3 0.0920505 0.420338 0.453629
39 4 0.161203 0.402364 0.42596
40 1 0.100095 0.348235 0.470666
41 3 0.141724 0.291946 0.472408
42 4 0.0616256 0.326962 0.471242
43 1 0.177464 0.315874 0.501921
44 3 0.138823 0.315407 0.527323
45 4 0.210475 0.343508 0.50611
46 1 0.165254 0.242369 0.538211
47 3 0.22507 0.20855 0.540696
48 4 0.141811 0.205632 0.535022
49 1 0.244778 0.243566 0.571542
50 3 0.206022 0.225708 0.595599
51 4 0.263194 0.28255 0.576269
52 1 0.258224 0.170149 0.607691
53 3 0.321545 0.144383 0.611303
54 4 0.243342 0.128976 0.604117
55 1 0.341311 0.19574 0.637025
56 3 0.314736 0.150978 0.657252
57 5 0.355871 0.1614 0.626082
58 1 0.381446 0.147534 0.676991
59 3 0.44922 0.157281 0.676312
60 4 0.380958 0.103823 0.673725
61 1 0.453702 0.18328 0.709963
62 3 0.429655 0.145317 0.733354
63 4 0.453214 0.226671 0.713857
64 1 0.502342 0.137788 0.748713
65 3 0.566926 0.159819 0.752389
66 4 0.515873 0.0959734 0.745536
67 1 0.551297 0.203502 0.781262
68 3 0.541845 0.157456 0.803948
69 4 0.534634 0.242603 0.786732
70 1 0.616686 0.164401 0.816335
71 3 0.672422 0.183659 0.832539
72 4 0.642256 0.132069 0.809456
73 1 0.639469 0.251094 0.845029
74 3 0.636021 0.203764 0.867817
75 4 0.612578 0.285148 0.848602
76 1 0.697676 0.236125 0.885661
77 3 0.7487 0.28258 0.885814
78 4 0.722498 0.200409 0.882164
79 1 0.730514 0.31176 0.918095
80 3 0.745913 0.275255 0.943343
81 4 0.700491 0.338722 0.926063
82 1 0.823167 0.293668 0.942485
83 3 0.821042 0.295652 0.973087
84 4 0.863591 0.298103 0.934927
85 1 0.819174 0.378698 0.974509
86 3 0.857931 0.39466 0.999078
87 4 0.782055 0.370878 0.984679
88 1 0.917286 0.344587 0.991033
89 3 0.958514 0.396819 0.999488
90 4 0.935013 0.304144 0.987818
91 1 0.989542 0.412431 0.968322
92 3 0.998851 0.470061 0.985115
93 4 0.996293 0.410797 0.948889
94 1 0.930215 0.504144 0.974791
95 3 0.872468 0.472016 0.965529
96 4 0.950642 0.541552 0.968757
97 1 0.825408 0.533353 0.975085
98 3 0.809262 0.538839 0.945264
99 4 0.809952 0.573621 0.979773
100 1 0.762605 0.47009 0.946379
101 3 0.761542 0.485118 0.916161
102 4 0.726089 0.494864 0.947134
103 1 0.830752 0.449577 0.909205
104 3 0.845462 0.386285 0.897125
105 4 0.873818 0.454392 0.911344
106 1 0.771569 0.374555 0.885328
107 3 0.793202 0.401547 0.85876
108 5 0.809261 0.353409 0.889862
109 1 0.789152 0.330318 0.841442
110 3 0.758698 0.268486 0.837189
111 4 0.829316 0.311876 0.840186
112 1 0.705232 0.297403 0.813606
113 3 0.741948 0.305661 0.78791
114 4 0.668285 0.321185 0.812377
115 1 0.712788 0.238751 0.772346
116 3 0.666791 0.188795 0.76712
117 4 0.7435 0.207091 0.773486
118 1 0.624989 0.23204 0.743589
119 3 0.667423 0.213423 0.720698
120 4 0.597035 0.265889 0.740822
121 1 0.609561 0.174759 0.702547
122 3 0.542822 0.16052 0.699805
123 4 0.621628 0.132711 0.705864
124 1 0.534404 0.199242 0.6691
125 3 0.559629 0.151328 0.649591
126 4 0.531071 0.240881 0.662209
127 1 0.48993 0.144383 0.632106
128 3 0.422817 0.156055 0.634988
129 4 0.490792 0.10038 0.63504
130 1 0.412992 0.179224 0.601491
131 3 0.432901 0.138576 0.578088
132 4 0.412618 0.223548 0.599813
133 1 0.364812 0.147914 0.56018
134 3 0.301721 0.17403 0.557195
135 4 0.349901 0.106741 0.562831
136 1 0.319849 0.218996 0.528604
137 3 0.334301 0.180012 0.504086
138 4 0.338007 0.258623 0.525043
139 1 0.259402 0.18077 0.491712
140 3 0.198495 0.211264 0.487011
141 4 0.239492 0.142749 0.496426
142 1 0.224064 0.258331 0.460751
143 3 0.222743 0.212314 0.437681
144 4 0.247565 0.294514 0.456498
145 1 0.159393 0.247213 0.421771
146 3 0.115034 0.298658 0.415533
147 4 0.125866 0.220222 0.425524
148 1 0.160169 0.330114 0.389453
149 3 0.150516 0.285264 0.366267
150 4 0.196283 0.353808 0.385597
151 1 0.102365 0.335833 0.348359
152 3 0.059988 0.390546 0.344695
153 4 0.0695551 0.306624 0.347808
154 1 0.110524 0.429822 0.322829
155 3 0.0789498 0.395244 0.299964
156 4 0.149022 0.450219 0.320191
157 1 0.0632919 0.462416 0.281544
158 3 0.0583792 0.531631 0.280955
159 4 0.0207719 0.456026 0.283952
160 1 0.0974518 0.539597 0.250211
161 3 0.0720545 0.508696 0.225079
162 4 0.140604 0.546017 0.248047
163 1 0.0501913 0.57829 0.209874
164 3 0.0605915 0.645988 0.204276
165 4 0.00712524 0.584855 0.211501
166 1 0.116098 0.63166 0.178874
167 3 0.0753012 0.616691 0.155074
168 4 0.156147 0.615991 0.17516
169 1 0.0813919 0.691392 0.140689
170 3 0.121556 0.747826 0.139075
171 4 0.0435259 0.712168 0.144762
172 1 0.145977 0.732098 0.105769
173 3 0.104146 0.733411 0.0814184
174 4 0.17847 0.70534 0.100082
175 1 0.125923 0.809367 0.0717854
176 3 0.17824 0.851298 0.0644968
177 4 0.103571 0.845316 0.0769349
178 1 0.20832 0.801196 0.0400687
179 3 0.176861 0.812255 0.0132709
180 4 0.226477 0.761745 0.0360208
181 1 0.220301 0.878873 0.00570039
182 3 0.286753 0.866997 0.000512489
183 4 0.224323 0.922702 0.00891561
184 1 0.664464 0.859469 0.0465377
185 3 0.598357 0.876539 0.0445265
186 4 0.683167 0.899562 0.0449877
187 1 0.581349 0.855354 0.0780751
188 3 0.619128 0.872512 0.102413
189 4 0.561697 0.816195 0.0811621
190 1 0.562272 0.919405 0.116901
191 3 0.497371 0.93665 0.123473
192 4 0.570891 0.96192 0.112597
193 1 0.490246 0.882346 0.149758
194 3 0.518488 0.928159 0.169318
195 4 0.489039 0.840589 0.156496
196 1 0.451605 0.9377 0.188059
197 3 0.383658 0.935133 0.19317
198 4 0.449105 0.980595 0.184011
199 1 0.390238 0.881587 0.220045
200 3 0.410147 0.918967 0.244562
201 4 0.399603 0.83913 0.224169
202 1 0.337145 0.925532 0.257923
203 3 0.273221 0.902392 0.262291
204 4 0.32255 0.966764 0.254925
205 1 0.294251 0.852232 0.289127
206 3 0.29744 0.898044 0.312108
207 4 0.316402 0.815494 0.294059
208 1 0.225098 0.876685 0.325481
209 3 0.184647 0.820484 0.326006
210 4 0.195507 0.90852 0.32151
211 1 0.20154 0.802363 0.360067
212 3 0.19203 0.843303 0.384726
213 4 0.236274 0.775868 0.363065
214 1 0.13595 0.797403 0.398932
215 3 0.0915047 0.744441 0.401237
216 4 0.102968 0.825591 0.396357
217 1 0.132531 0.707032 0.427215
218 3 0.135404 0.742982 0.453629
219 4 0.16468 0.67686 0.42596
220 1 0.0849257 0.691654 0.470666
221 3 0.067544 0.62349 0.472408
222 4 0.04456 0.708929 0.471242
223 1 0.108254 0.610038 0.501921
224 3 0.0838051 0.640443 0.527323
225 4 0.150085 0.60105 0.50611
226 1 0.0440717 0.573913 0.538211
227 3 0.055305 0.505311 0.540696
228 4 0.00114942 0.569623 0.535022
229 1 0.0945501 0.511497 0.571542
230 3 0.0566267 0.531135 0.595599
231 4 0.136036 0.521155 0.576269
232 1 0.0464276 0.455063 0.607691
233 3 0.0660787 0.388707 0.611303
234 4 0.00545872 0.441202 0.604117
235 1 0.117936 0.405048 0.637025
236 3 0.0668831 0.39822 0.657252
237 5 0.10062 0.372059 0.626079
238 1 0.105841 0.343099 0.676991
239 3 0.155601 0.29536 0.676312
240 4 0.0718822 0.316253 0.673725
241 1 0.178412 0.308025 0.709963
242 3 0.134197 0.303443 0.733354
243 4 0.211509 0.335454 0.713857
244 1 0.173729 0.241027 0.748713
245 3 0.230931 0.203473 0.752389
246 4 0.14997 0.204231 0.745536
247 1 0.254834 0.243099 0.781262
248 3 0.213492 0.221944 0.803948
249 4 0.274543 0.280741 0.786732
250 1 0.265493 0.166822 0.816335
251 3 0.31508 0.134549 0.832539
252 4 0.256558 0.12635 0.809456
253 1 0.346425 0.202801 0.845029
254 3 0.307869 0.176014 0.867817
255 4 0.355906 0.245375 0.848602
256 1 0.371218 0.147213 0.885661
257 3 0.438762 0.135658 0.885814
258 4 0.359181 0.105223 0.882164
259 1 0.449909 0.168281 0.918095
260 3 0.431407 0.133324 0.943343
261 4 0.451949 0.208958 0.926063
262 1 0.493722 0.0834551 0.942485
263 3 0.493952 0.0863731 0.973087
264 4 0.522366 0.0541293 0.934927
265 1 0.556727 0.139627 0.974509
266 3 0.593156 0.118792 0.999078
267 4 0.527538 0.164225 0.984679
268 1 0.591634 0.0404729 0.991033
269 3 0.65754 0.0402977 0.999488
270 4 0.571523 0.00116743 0.987818
271 1 0.688884 0.0253869 0.968322
272 3 0.739075 0.0539249 0.985115
273 4 0.691844 0.0189964 0.948889
274 1 0.722498 0.129676 0.974791
275 3 0.661763 0.155501 0.965529
276 4 0.764041 0.136767 0.968757
277 1 0.679662 0.231106 0.975085
278 3 0.673801 0.247359 0.945264
279 4 0.701008 0.268486 0.979773
280 1 0.591806 0.241523 0.946379
281 3 0.602695 0.251736 0.916161
282 4 0.5881 0.285994 0.947134
283 1 0.618468 0.174643 0.909205
284 3 0.578935 0.12349 0.897125
285 4 0.649036 0.143449 0.911344
286 1 0.523831 0.174847 0.885328
287 3 0.558077 0.174497 0.85876
288 5 0.531064 0.131733 0.88986
289 1 0.500733 0.133324 0.841442
290 3 0.434166 0.118938 0.837189
291 4 0.511592 0.0899331 0.840186
292 1 0.423105 0.179428 0.813606
293 3 0.452323 0.155413 0.78791
294 4 0.418364 0.223578 0.812377
295 1 0.382653 0.136884 0.772346
296 3 0.315511 0.142224 0.76712
297 4 0.377424 0.0927344 0.773486
298 1 0.322751 0.202393 0.743589
299 3 0.334846 0.157076 0.720698
300 4 0.33137 0.245696 0.740822
301 1 0.269026 0.178932 0.702547
302 3 0.216451 0.223052 0.699805
303 4 0.244175 0.143128 0.705864
304 1 0.240986 0.253866 0.6691
305 3 0.21987 0.203998 0.649591
306 4 0.27098 0.282492 0.662209
307 1 0.171058 0.255004 0.632106
308 3 0.138219 0.315553 0.634988
309 4 0.137731 0.226875 0.63504
310 1 0.149912 0.337817 0.601491
311 3 0.131008 0.296674 0.578088
312 4 0.183785 0.365743 0.599813
313 1 0.0957855 0.356551 0.56018
314 3 0.0765365 0.422936 0.557195
315 4 0.0547879 0.34272 0.562831
316 1 0.122447 0.436563 0.528604
317 3 0.101445 0.400788 0.504086
318 4 0.164277 0.446863 0.525043
319 1 0.0553337 0.460724 0.491712
320 3 0.0408252 0.528129 0.487011
321 4 0.0136468 0.452845 0.496426
322 1 0.0929987 0.537175 0.460751
323 3 0.0567703 0.509513 0.437681
324 4 0.135519 0.541056 0.456498
325 1 0.0441291 0.581587 0.421771
326 3 0.0560807 0.648876 0.415533
327 4 0.00244221 0.591363 0.425524
328 1 0.108427 0.632652 0.389453
329 3 0.0678888 0.612343 0.366267
330 4 0.149166 0.618734 0.385597
331 1 0.076795 0.682112 0.348359
332 3 0.0924816 0.749868 0.344695
333 4 0.033844 0.689962 0.347808
334 1 0.154222 0.734228 0.322829
335 3 0.107938 0.737759 0.299964
336 4 0.193927 0.716399 0.320191
337 1 0.149884 0.792063 0.281544
338 3 0.200075 0.839101 0.280955
339 4 0.118453 0.821856 0.283952
340 1 0.230586 0.813072 0.250211
341 3 0.190939 0.813948 0.225079
342 4 0.262418 0.782813 0.248047
343 1 0.230902 0.874701 0.209874
344 3 0.289511 0.908666 0.204276
345 4 0.209096 0.913014 0.211501
346 1 0.313069 0.855675 0.178874
347 3 0.276123 0.878728 0.155074
348 4 0.325969 0.814065 0.17516
349 1 0.337403 0.920455 0.140689
350 3 0.405895 0.923752 0.139075
351 4 0.32979 0.963466 0.144762
352 1 0.408998 0.894543 0.105769
353 3 0.383946 0.928596 0.0814184
354 4 0.408653 0.852057 0.100082
355 1 0.456 0.958652 0.0717854
356 3 0.520872 0.943245 0.0644968
357 4 0.469704 0.998833 0.0769349
358 1 0.501077 0.888123 0.0400687
359 3 0.489959 0.920017 0.0132709
360 4 0.482001 0.84911 0.0360208
