LAMMPS protain data file

         108  atoms
         132  bonds
           0  angles
           0  dihedrals
           0  impropers

           5  atom types
           5  bond types
           0  angle types
           0  dihedral types
           0  improper types

-200.0	200.0	xlo xhi
-200.0	200.0	ylo yhi
-200.0	200.0	zlo zhi

Masses

           1	27.0
           2	14.0
           3	28.0
           4	60.0
           5	60.0

Atoms

           1	1	1	1	0.0	4.5999999	-3.30299997	15.83199978
           2	1	1	3	0.0	2.70300007	-2.54900002	14.51599979
           3	1	1	4	0.0	4.64699984	-4.8210001	15.83300018
           4	1	2	1	0.0	4.29799986	-1.82200003	12.26000023
           5	1	2	3	0.0	6.09800005	-2.61599994	10.94900036
           6	1	2	4	0.0	4.59000015	-0.36000001	12.13899994
           7	1	3	1	0.0	4.55900002	-3.97799993	9.15799999
           8	1	3	3	0.0	2.72399998	-3.28699994	7.73400021
           9	1	3	4	0.0	4.30200005	-5.43200016	9.27700043
          10	1	4	1	0.0	4.53599977	-2.68199992	5.61399984
          11	1	4	3	0.0	6.20300007	-3.83999991	4.38399982
          12	1	4	4	0.0	5.18499994	-1.324	5.36299992
          13	1	5	1	0.0	4.40399981	-5.2249999	2.773
          14	1	5	3	0.0	2.79500008	-4.29699993	1.24399996
          15	1	5	5	0.0	5.46753847	-4.29470387	2.16059915
          16	1	6	1	0.0	3.1329999	-6.3920002	-0.667
          17	1	6	3	0.0	1.574	-7.69299984	0.56900001
          18	1	6	4	0.0	4.00199986	-7.23699999	-1.57299995
          19	2	7	1	0.0	4.5999999	8.48099995	15.83199978
          20	2	7	3	0.0	2.70300007	9.23499966	14.51599979
          21	2	7	4	0.0	4.64699984	6.96299982	15.83300018
          22	2	8	1	0.0	4.29799986	9.96199989	12.26000023
          23	2	8	3	0.0	6.09800005	9.16800022	10.94900036
          24	2	8	4	0.0	4.59000015	11.42399979	12.13899994
          25	2	9	1	0.0	4.55900002	7.80600023	9.15799999
          26	2	9	3	0.0	2.72399998	8.49699974	7.73400021
          27	2	9	4	0.0	4.30200005	6.35200024	9.27700043
          28	2	10	1	0.0	4.53599977	9.10200024	5.61399984
          29	2	10	3	0.0	6.20300007	7.94399977	4.38399982
          30	2	10	4	0.0	5.18499994	10.46000004	5.36299992
          31	2	11	1	0.0	4.40399981	6.55900002	2.773
          32	2	11	3	0.0	2.79500008	7.48699999	1.24399996
          33	2	11	5	0.0	5.46753847	7.48929605	2.16059915
          34	2	12	1	0.0	3.1329999	5.3920002	-0.667
          35	2	12	3	0.0	1.574	4.09100008	0.56900001
          36	2	12	4	0.0	4.00199986	4.54699993	-1.57299995
          37	3	13	1	0.0	-0.59299999	-4.38800001	2.90700006
          38	3	13	3	0.0	1.29499996	-3.34500003	3.98699999
          39	3	13	4	0.0	-0.40200001	-5.87300014	3.02699995
          40	3	14	1	0.0	-0.06	-2.70499992	6.30800009
          41	3	14	3	0.0	-1.99399996	-3.477	7.52099991
          42	3	14	4	0.0	-0.22	-1.19500005	6.37699986
          43	3	15	1	0.0	-0.447	-4.17999983	9.74600029
          44	3	15	3	0.0	1.39600003	-3.48000002	11.06999969
          45	3	15	4	0.0	-0.134	-5.62300014	9.9090004
          46	3	16	1	0.0	-0.215	-1.93299997	12.82499981
          47	3	16	3	0.0	-2.10100007	-2.65499997	14.17300034
          48	3	16	4	0.0	-0.551	-0.472	12.79599953
          49	3	17	1	0.0	-0.51899999	-3.93700004	16.01099968
          50	3	17	3	0.0	1.22500002	-3.11299992	17.24699974
          51	3	17	5	0.0	-1.25361602	-2.6928989	16.54405846
          52	3	18	1	0.0	0.963	-4.704	19.39999962
          53	3	18	3	0.0	1.66900003	-6.84700012	18.56399918
          54	3	18	4	0.0	0.177	-4.65999985	20.72800064
          55	4	19	1	0.0	8.92000008	-4.38800001	2.90700006
          56	4	19	3	0.0	10.80799961	-3.34500003	3.98699999
          57	4	19	4	0.0	9.11100006	-5.87300014	3.02699995
          58	4	20	1	0.0	9.45300007	-2.70499992	6.30800009
          59	4	20	3	0.0	7.51900005	-3.477	7.52099991
          60	4	20	4	0.0	9.29300022	-1.19500005	6.37699986
          61	4	21	1	0.0	9.06599998	-4.17999983	9.74600029
          62	4	21	3	0.0	10.9090004	-3.48000002	11.06999969
          63	4	21	4	0.0	9.37899971	-5.62300014	9.9090004
          64	4	22	1	0.0	9.29800034	-1.93299997	12.82499981
          65	4	22	3	0.0	7.41200018	-2.65499997	14.17300034
          66	4	22	4	0.0	8.96199989	-0.472	12.79599953
          67	4	23	1	0.0	8.99400043	-3.93700004	16.01099968
          68	4	23	3	0.0	10.73799992	-3.11299992	17.24699974
          69	4	23	5	0.0	8.2593842	-2.69289901	16.54405843
          70	4	24	1	0.0	10.47599983	-4.704	19.39999962
          71	4	24	3	0.0	11.18200016	-6.84700012	18.56399918
          72	4	24	4	0.0	9.68999958	-4.65999985	20.72800064
          73	5	25	1	0.0	-0.59299999	7.39599991	2.90700006
          74	5	25	3	0.0	1.29499996	8.43900013	3.98699999
          75	5	25	4	0.0	-0.40200001	5.91099977	3.02699995
          76	5	26	1	0.0	-0.06	9.07900047	6.30800009
          77	5	26	3	0.0	-1.99399996	8.30700016	7.52099991
          78	5	26	4	0.0	-0.22	10.58899975	6.37699986
          79	5	27	1	0.0	-0.447	7.60400009	9.74600029
          80	5	27	3	0.0	1.39600003	8.3039999	11.06999969
          81	5	27	4	0.0	-0.134	6.16099977	9.9090004
          82	5	28	1	0.0	-0.215	9.85099983	12.82499981
          83	5	28	3	0.0	-2.10100007	9.12899971	14.17300034
          84	5	28	4	0.0	-0.551	11.31200027	12.79599953
          85	5	29	1	0.0	-0.51899999	7.84700012	16.01099968
          86	5	29	3	0.0	1.22500002	8.67099953	17.24699974
          87	5	29	5	0.0	-1.25361585	9.09110129	16.54405861
          88	5	30	1	0.0	0.963	7.07999992	19.39999962
          89	5	30	3	0.0	1.66900003	4.9369998	18.56399918
          90	5	30	4	0.0	0.177	7.12400007	20.72800064
          91	6	31	1	0.0	8.92000008	7.39599991	2.90700006
          92	6	31	3	0.0	10.80799961	8.43900013	3.98699999
          93	6	31	4	0.0	9.11100006	5.91099977	3.02699995
          94	6	32	1	0.0	9.45300007	9.07900047	6.30800009
          95	6	32	3	0.0	7.51900005	8.30700016	7.52099991
          96	6	32	4	0.0	9.29300022	10.58899975	6.37699986
          97	6	33	1	0.0	9.06599998	7.60400009	9.74600029
          98	6	33	3	0.0	10.9090004	8.3039999	11.06999969
          99	6	33	4	0.0	9.37899971	6.16099977	9.9090004
         100	6	34	1	0.0	9.29800034	9.85099983	12.82499981
         101	6	34	3	0.0	7.41200018	9.12899971	14.17300034
         102	6	34	4	0.0	8.96199989	11.31200027	12.79599953
         103	6	35	1	0.0	8.99400043	7.84700012	16.01099968
         104	6	35	3	0.0	10.73799992	8.67099953	17.24699974
         105	6	35	5	0.0	8.25938437	9.09110118	16.54405858
         106	6	36	1	0.0	10.47599983	7.07999992	19.39999962
         107	6	36	3	0.0	11.18200016	4.9369998	18.56399918
         108	6	36	4	0.0	9.68999958	7.12400007	20.72800064

Bond Coeffs

           1	200.0	3.77
           2	200.0	2.41
           3	200.0	2.50
           4	200.0	1.54
           5	200.0	1.54
Bonds

           1	2	1	2
           2	4	1	3
           3	1	1	4
           4	3	2	4
           5	2	4	5
           6	4	4	6
           7	1	4	7
           8	3	5	7
           9	2	7	8
          10	4	7	9
          11	1	7	10
          12	3	8	10
          13	2	10	11
          14	4	10	12
          15	1	10	13
          16	3	11	13
          17	2	13	14
          18	5	13	15
          19	1	13	16
          20	3	14	16
          21	2	16	17
          22	4	16	18
          23	2	19	20
          24	4	19	21
          25	1	19	22
          26	3	20	22
          27	2	22	23
          28	4	22	24
          29	1	22	25
          30	3	23	25
          31	2	25	26
          32	4	25	27
          33	1	25	28
          34	3	26	28
          35	2	28	29
          36	4	28	30
          37	1	28	31
          38	3	29	31
          39	2	31	32
          40	5	31	33
          41	1	31	34
          42	3	32	34
          43	2	34	35
          44	4	34	36
          45	2	37	38
          46	4	37	39
          47	1	37	40
          48	3	38	40
          49	2	40	41
          50	4	40	42
          51	1	40	43
          52	3	41	43
          53	2	43	44
          54	4	43	45
          55	1	43	46
          56	3	44	46
          57	2	46	47
          58	4	46	48
          59	1	46	49
          60	3	47	49
          61	2	49	50
          62	5	49	51
          63	1	49	52
          64	3	50	52
          65	2	52	53
          66	4	52	54
          67	2	55	56
          68	4	55	57
          69	1	55	58
          70	3	56	58
          71	2	58	59
          72	4	58	60
          73	1	58	61
          74	3	59	61
          75	2	61	62
          76	4	61	63
          77	1	61	64
          78	3	62	64
          79	2	64	65
          80	4	64	66
          81	1	64	67
          82	3	65	67
          83	2	67	68
          84	5	67	69
          85	1	67	70
          86	3	68	70
          87	2	70	71
          88	4	70	72
          89	2	73	74
          90	4	73	75
          91	1	73	76
          92	3	74	76
          93	2	76	77
          94	4	76	78
          95	1	76	79
          96	3	77	79
          97	2	79	80
          98	4	79	81
          99	1	79	82
         100	3	80	82
         101	2	82	83
         102	4	82	84
         103	1	82	85
         104	3	83	85
         105	2	85	86
         106	5	85	87
         107	1	85	88
         108	3	86	88
         109	2	88	89
         110	4	88	90
         111	2	91	92
         112	4	91	93
         113	1	91	94
         114	3	92	94
         115	2	94	95
         116	4	94	96
         117	1	94	97
         118	3	95	97
         119	2	97	98
         120	4	97	99
         121	1	97	100
         122	3	98	100
         123	2	100	101
         124	4	100	102
         125	1	100	103
         126	3	101	103
         127	2	103	104
         128	5	103	105
         129	1	103	106
         130	3	104	106
         131	2	106	107
         132	4	106	108

