ITEM: TIMESTEP
0
ITEM: NUMBER OF ATOMS
108
ITEM: BOX BOUNDS ss ss ss
-2.1410080699999998e+00 1.1222008160000000e+01
-7.7330078400000000e+00 1.1464007790000000e+01
-1.6130079500000001e+00 2.0768008640000001e+01
ITEM: ATOMS id type xs ys zs
1 1 0.504453 0.230765 0.779456
2 3 0.362494 0.270042 0.720656
3 4 0.50797 0.151691 0.7795
4 1 0.481853 0.307913 0.619856
5 3 0.616553 0.266552 0.56128
6 4 0.503704 0.384071 0.61445
7 1 0.501384 0.195604 0.481256
8 3 0.364065 0.231599 0.417631
9 4 0.482152 0.119863 0.486573
10 1 0.499663 0.263114 0.322908
11 3 0.624411 0.202792 0.267951
12 4 0.54823 0.333854 0.311693
13 1 0.489785 0.130646 0.19597
14 3 0.369378 0.178987 0.127653
15 5 0.569373 0.179106 0.168607
16 1 0.394672 0.069855 0.0422683
17 3 0.278007 0.00208407 0.0974937
18 4 0.459702 0.0258378 0.00178759
19 1 0.504453 0.844611 0.779456
20 3 0.362494 0.883888 0.720656
21 4 0.50797 0.765536 0.7795
22 1 0.481853 0.921758 0.619856
23 3 0.616553 0.880398 0.56128
24 4 0.503704 0.997916 0.61445
25 1 0.501384 0.809449 0.481256
26 3 0.364065 0.845444 0.417631
27 4 0.482152 0.733708 0.486573
28 1 0.499663 0.87696 0.322908
29 3 0.624411 0.816638 0.267951
30 4 0.54823 0.9477 0.311693
31 1 0.489785 0.744491 0.19597
32 3 0.369378 0.792832 0.127653
33 5 0.569373 0.792952 0.168607
34 1 0.394672 0.6837 0.0422683
35 3 0.278007 0.615929 0.0974937
36 4 0.459702 0.639683 0.00178759
37 1 0.115843 0.174246 0.201957
38 3 0.257128 0.228578 0.250212
39 4 0.130136 0.0968905 0.207319
40 1 0.155729 0.261916 0.353916
41 3 0.0110011 0.221702 0.408114
42 4 0.143756 0.340574 0.356999
43 1 0.126768 0.185081 0.507529
44 3 0.264686 0.221545 0.566686
45 4 0.150191 0.109913 0.514812
46 1 0.14413 0.302131 0.645101
47 3 0.00299393 0.264521 0.70533
48 4 0.118986 0.378236 0.643805
49 1 0.12138 0.197739 0.787453
50 3 0.25189 0.240663 0.842679
51 5 0.0664066 0.262546 0.811271
52 1 0.232283 0.157785 0.938876
53 3 0.285116 0.0461534 0.901523
54 4 0.173464 0.160077 0.998212
55 1 0.827733 0.174246 0.201957
56 3 0.969018 0.228578 0.250212
57 4 0.842026 0.0968905 0.207319
58 1 0.867619 0.261916 0.353916
59 3 0.722891 0.221702 0.408114
60 4 0.855646 0.340574 0.356999
61 1 0.838659 0.185081 0.507529
62 3 0.976577 0.221545 0.566686
63 4 0.862081 0.109913 0.514812
64 1 0.85602 0.302131 0.645101
65 3 0.714884 0.264521 0.70533
66 4 0.830876 0.378236 0.643805
67 1 0.833271 0.197739 0.787453
68 3 0.96378 0.240663 0.842679
69 5 0.778297 0.262546 0.811271
70 1 0.944174 0.157785 0.938876
71 3 0.997006 0.0461534 0.901523
72 4 0.885355 0.160077 0.998212
73 1 0.115843 0.788092 0.201957
74 3 0.257128 0.842423 0.250212
75 4 0.130136 0.710736 0.207319
76 1 0.155729 0.875762 0.353916
77 3 0.0110011 0.835547 0.408114
78 4 0.143756 0.95442 0.356999
79 1 0.126768 0.798927 0.507529
80 3 0.264686 0.835391 0.566686
81 4 0.150191 0.723759 0.514812
82 1 0.14413 0.915976 0.645101
83 3 0.00299393 0.878366 0.70533
84 4 0.118986 0.992082 0.643805
85 1 0.12138 0.811585 0.787453
86 3 0.25189 0.854508 0.842679
87 5 0.0664066 0.876392 0.811271
88 1 0.232283 0.771631 0.938876
89 3 0.285116 0.659999 0.901523
90 4 0.173464 0.773923 0.998212
91 1 0.827733 0.788092 0.201957
92 3 0.969018 0.842423 0.250212
93 4 0.842026 0.710736 0.207319
94 1 0.867619 0.875762 0.353916
95 3 0.722891 0.835547 0.408114
96 4 0.855646 0.95442 0.356999
97 1 0.838659 0.798927 0.507529
98 3 0.976577 0.835391 0.566686
99 4 0.862081 0.723759 0.514812
100 1 0.85602 0.915976 0.645101
101 3 0.714884 0.878366 0.70533
102 4 0.830876 0.992082 0.643805
103 1 0.833271 0.811585 0.787453
104 3 0.96378 0.854508 0.842679
105 5 0.778297 0.876392 0.811271
106 1 0.944174 0.771631 0.938876
107 3 0.997006 0.659999 0.901523
108 4 0.885355 0.773923 0.998212
