LAMMPS (29 Aug 2024 - Update 1)
# 3d protein simulation

units real

timestep 2

dimension	3

boundary s s s
#boundary p p p

neighbor	10 bin
neigh_modify	delay 5

atom_modify sort 0 0.0

special_bonds fene

atom_style	awsemmd

bond_style harmonic

pair_style vexcluded 2 3.5 3.5

read_data data.3nve_6chains
Reading data file ...
  orthogonal box = (-200 -200 -200) to (200 200 200)
  1 by 1 by 1 MPI processor grid
  reading atoms ...
  108 atoms
  scanning bonds ...
  3 = max bonds/atom
  orthogonal box = (-200.04 -200.04 -200.04) to (200.04 200.04 200.04)
  1 by 1 by 1 MPI processor grid
  reading bonds ...
  132 bonds
Finding 1-2 1-3 1-4 neighbors ...
  special bond factors lj:    0        1        1       
  special bond factors coul:  0        1        1       
     5 = max # of 1-2 neighbors
     5 = max # of special neighbors
  special bonds CPU = 0.000 seconds
  read_data CPU = 0.013 seconds

pair_coeff * * 0.0
pair_coeff 1 1 20.0 3.5 4.5
pair_coeff 1 4 20.0 3.5 4.5
pair_coeff 4 4 20.0 3.5 4.5
pair_coeff 3 3 20.0 3.5 3.5


velocity	all create 300.0 2349852

group		alpha_carbons id 1 4 7 10 13 16 19 22 25 28 31 34 37 40 43 46 49 52 55 58 61 64 67 70 73 76 79 82 85 88 91 94 97 100 103 106
36 atoms in group alpha_carbons

group		beta_atoms id 3 6 9 12 15 18 21 24 27 30 33 36 39 42 45 48 51 54 57 60 63 66 69 72 75 78 81 84 87 90 93 96 99 102 105 108
36 atoms in group beta_atoms

group		oxygens id 2 5 8 11 14 17 20 23 26 29 32 35 38 41 44 47 50 53 56 59 62 65 68 71 74 77 80 83 86 89 92 95 98 101 104 107
36 atoms in group oxygens


fix		  1 all nvt temp 300.0 300.0 100.0
fix		  2 alpha_carbons backbone beta_atoms oxygens fix_backbone_coeff.data 3nve_6chains.seq
Chain flag on
Chi flag on
Rama flag on
Rama_P flag on
SSWeight flag on
ABC flag on
Dssp_Hdrgn flag on
P_AP flag on
Water flag on
Burial flag on
Helix flag on

Fix backbone Pair List cutoff 15.0000

thermo		1000
dump		1 all atom 1000 dump.lammpstrj

dump_modify	1 sort id

reset_timestep	0
run		0

CITE-CITE-CITE-CITE-CITE-CITE-CITE-CITE-CITE-CITE-CITE-CITE-CITE

Your simulation uses code contributions which should be cited:

- Type Label Framework: https://doi.org/10.1021/acs.jpcb.3c08419

@Article{Gissinger24,
 author = {Jacob R. Gissinger, Ilia Nikiforov, Yaser Afshar, Brendon Waters, Moon-ki Choi, Daniel S. Karls, Alexander Stukowski, Wonpil Im, Hendrik Heinz, Axel Kohlmeyer, and Ellad B. Tadmor},
 title = {Type Label Framework for Bonded Force Fields in LAMMPS},
 journal = {J. Phys. Chem. B},
 year =    2024,
 volume =  128,
 number =  13,
 pages =   {3282–-3297}
}

CITE-CITE-CITE-CITE-CITE-CITE-CITE-CITE-CITE-CITE-CITE-CITE-CITE

Generated 0 of 10 mixed pair_coeff terms from geometric mixing rule
Neighbor list info ...
  update: every = 1 steps, delay = 5 steps, check = yes
  max neighbors/atom: 2000, page size: 100000
  master list distance cutoff = 14.5
  ghost atom cutoff = 25
  binsize = 7.25, bins = 2 3 4
  2 neighbor lists, perpetual/occasional/extra = 2 0 0
  (1) pair vexcluded, perpetual
      attributes: half, newton on
      pair build: half/bin/newton
      stencil: half/bin/3d
      bin: standard
  (2) fix backbone, perpetual
      attributes: half, newton on, cut 25
      pair build: half/bin/newton
      stencil: half/bin/3d
      bin: standard
Per MPI rank memory allocation (min/avg/max) = 7.18 | 7.18 | 7.18 Mbytes
   Step          Temp          E_pair         E_mol          TotEng         Press          Volume    
         0   300            10.51521       535.97391      642.17313     -36718.684      5741.4029    
Loop time of 9.08e-07 on 1 procs for 0 steps with 108 atoms

110.1% CPU use with 1 MPI tasks x no OpenMP threads

MPI task timing breakdown:
Section |  min time  |  avg time  |  max time  |%varavg| %total
---------------------------------------------------------------
Pair    | 0          | 0          | 0          |   0.0 |  0.00
Bond    | 0          | 0          | 0          |   0.0 |  0.00
Neigh   | 0          | 0          | 0          |   0.0 |  0.00
Comm    | 0          | 0          | 0          |   0.0 |  0.00
Output  | 0          | 0          | 0          |   0.0 |  0.00
Modify  | 0          | 0          | 0          |   0.0 |  0.00
Other   |            | 9.08e-07   |            |       |100.00

Nlocal:            108 ave         108 max         108 min
Histogram: 1 0 0 0 0 0 0 0 0 0
Nghost:              0 ave           0 max           0 min
Histogram: 1 0 0 0 0 0 0 0 0 0
Neighs:           3246 ave        3246 max        3246 min
Histogram: 1 0 0 0 0 0 0 0 0 0

Total # of neighbors = 3246
Ave neighs/atom = 30.055556
Ave special neighs/atom = 2.4444444
Neighbor list builds = 0
Dangerous builds = 0
Total wall time: 0:00:00
