LAMMPS protain data file

         624  atoms
         816  bonds
           0  angles
           0  dihedrals
           0  impropers

           5  atom types
           5  bond types
           0  angle types
           0  dihedral types
           0  improper types

-200.0	200.0	xlo xhi
-200.0	200.0	ylo yhi
-200.0	200.0	zlo zhi

Masses

           1	27.0
           2	14.0
           3	28.0
           4	60.0
           5	60.0

Atoms

           1	1	1	1	0.0	7.07499981	13.14999962	-156.22999573
           2	1	1	3	0.0	6.28399992	11.56599998	-154.60899353
           3	1	1	4	0.0	8.49400043	13.32499981	-155.68400574
           4	1	2	1	0.0	5.75400019	9.59399986	-156.47000122
           5	1	2	3	0.0	6.40399981	8.55200005	-158.53300476
           6	1	2	4	0.0	4.25299978	9.56200027	-156.76600647
           7	1	3	1	0.0	7.83199978	6.52299976	-157.30999756
           8	1	3	3	0.0	7.73999977	5.25400019	-155.2769928
           9	1	3	4	0.0	9.30300045	6.9000001	-157.49499512
          10	1	4	1	0.0	7.53499985	2.81100011	-156.53599548
          11	1	4	3	0.0	8.19999981	1.75199997	-158.58500671
          12	1	4	4	0.0	6.06500006	2.43400002	-156.34399414
          13	1	5	1	0.0	9.57299995	-0.296	-157.34100342
          14	1	5	3	0.0	9.47099972	-1.56500006	-155.30799866
          15	1	5	4	0.0	11.05000019	0.064	-157.51199341
          16	1	6	1	0.0	9.21399975	-4.00400019	-156.57200623
          17	1	6	3	0.0	9.88500023	-5.05600023	-158.62199402
          18	1	6	4	0.0	7.73899984	-4.36600018	-156.38999939
          19	1	7	1	0.0	11.22900009	-7.12400007	-157.38800049
          20	1	7	3	0.0	10.82900047	-8.42300034	-155.40899658
          21	1	7	4	0.0	12.7130003	-6.78100014	-157.53100586
          22	1	8	1	0.0	11.11299992	-10.8579998	-156.68499756
          23	1	8	3	0.0	13.06000042	-11.59500027	-157.88200378
          24	1	8	4	0.0	9.96000004	-11.63899994	-157.31799316
          25	1	9	1	0.0	13.9989996	-13.17599964	-155.82099915
          26	1	9	3	0.0	12.63700008	-15.14900017	-155.94999695
          27	1	9	4	0.0	14.64400005	-13.19499969	-154.43400574
          28	1	10	1	0.0	14.45400047	-16.57099915	-157.46800232
          29	1	10	3	0.0	14.37199974	-18.76499939	-156.4960022
          30	1	10	4	0.0	15.52000046	-16.90099907	-158.51400757
          31	1	11	1	0.0	14.94799995	-17.89299965	-153.93899536
          32	1	11	3	0.0	17.04299927	-18.86700058	-153.28599548
          33	1	11	5	0.0	14.54963113	-16.70362884	-153.04551936
          34	1	12	1	0.0	18.13699913	-16.47999954	-152.42900085
          35	1	12	3	0.0	18.67399979	-15.09200001	-150.54499817
          36	1	12	4	0.0	19.17900085	-16.54000092	-153.54499817
          37	1	13	1	0.0	17.91699982	-12.74100018	-151.78199768
          38	1	13	3	0.0	19.6439991	-12.18700027	-150.20899963
          39	1	13	4	0.0	17.01499939	-12.68099976	-150.54800415
          40	1	14	1	0.0	21.63100052	-12.00899982	-152.1190033
          41	1	14	3	0.0	23.50099945	-11.22900009	-153.40800476
          42	1	14	4	0.0	22.32699966	-13.19699955	-151.45100403
          43	1	15	1	0.0	22.24099922	-11.56200027	-155.84500122
          44	1	15	3	0.0	22.0739994	-9.74699974	-157.40699768
          45	1	15	5	0.0	23.23948273	-10.59508672	-155.18189576
          46	1	16	1	0.0	19.54800034	-8.98400021	-156.58799744
          47	1	16	3	0.0	19.6970005	-7.78800011	-154.51199341
          48	1	16	4	0.0	18.06500053	-9.35599995	-156.63600159
          49	1	17	1	0.0	20.11499977	-5.33099985	-155.70300293
          50	1	17	3	0.0	19.55800056	-4.20100021	-157.7460022
          51	1	17	4	0.0	21.60400009	-5.08400011	-155.45599365
          52	1	18	1	0.0	18.43000031	-2.01600003	-156.49200439
          53	1	18	3	0.0	18.6439991	-0.78600001	-154.44299316
          54	1	18	4	0.0	16.9279995	-2.22600007	-156.68699646
          55	1	19	1	0.0	19.1420002	1.63	-155.67900085
          56	1	19	3	0.0	18.62400055	2.76399994	-157.72900391
          57	1	19	5	0.0	17.78505773	1.50226349	-154.96206954
          58	1	20	1	0.0	17.56699944	4.99300003	-156.49299622
          59	1	20	3	0.0	17.82799911	6.22200012	-154.44799805
          60	1	20	4	0.0	16.05999947	4.82499981	-156.70100403
          61	1	21	1	0.0	18.33200073	8.63099957	-155.69299316
          62	1	21	3	0.0	17.93799973	9.99300003	-157.63299561
          63	1	21	4	0.0	19.8409996	8.86600018	-155.59899902
          64	1	22	1	0.0	16.15299988	11.67399979	-156.35899353
          65	1	22	3	0.0	17.31800079	13.03199959	-154.75799561
          66	1	22	4	0.0	14.65600014	11.60599995	-156.05499268
          67	1	23	1	0.0	17.03000069	15.36900043	-156.20100403
          68	1	23	3	0.0	18.8220005	15.79899979	-154.66200256
          69	1	23	5	0.0	17.52109015	15.61901167	-157.63903237
          70	1	24	1	0.0	20.72100067	14.46500015	-156.16099548
          71	1	24	3	0.0	21.02400017	16.77700043	-155.58999634
          72	1	24	5	0.0	20.37747087	14.71359127	-154.68052606
          73	1	25	1	0.0	23.31200027	17.07900047	-157.10699463
          74	1	25	3	0.0	22.24099922	17.4659996	-159.22099304
          75	1	25	4	0.0	24.7689991	16.74300003	-157.43299866
          76	1	26	1	0.0	22.27599907	20.21800041	-158.98399353
          77	1	26	3	0.0	23.40200043	19.49399948	-160.92599487
          78	1	26	4	0.0	22.00200081	21.56599998	-158.31700134
          79	2	27	1	0.0	11.23799992	-14.30300045	-161.50700378
          80	2	27	3	0.0	10.77299976	-12.98499966	-163.45899963
          81	2	27	4	0.0	10.63099957	-15.61200047	-162.01699829
          82	2	28	1	0.0	9.2840004	-11.09599972	-162.09899902
          83	2	28	3	0.0	9.52299976	-9.88799953	-160.03799438
          84	2	28	4	0.0	7.77299976	-11.31599998	-162.19200134
          85	2	29	1	0.0	10.14000034	-7.48799992	-161.26400757
          86	2	29	3	0.0	9.60400009	-6.33500004	-163.29800415
          87	2	29	4	0.0	11.64999962	-7.31899977	-161.08099365
          88	2	30	1	0.0	8.54500008	-4.12400007	-162.04100037
          89	2	30	3	0.0	8.78100014	-2.89899993	-159.98899841
          90	2	30	4	0.0	7.03900003	-4.29699993	-162.24099731
          91	2	31	1	0.0	9.33300018	-0.495	-161.22799683
          92	2	31	3	0.0	8.82699966	0.64499998	-163.27900696
          93	2	31	4	0.0	10.8380003	-0.322	-161.01100159
          94	2	32	1	0.0	7.76599979	2.87299991	-162.04299927
          95	2	32	3	0.0	8.04699993	4.10599995	-160.00300598
          96	2	32	4	0.0	6.25500011	2.72099996	-162.23399353
          97	2	33	1	0.0	8.60099983	6.5	-161.25799561
          98	2	33	3	0.0	7.53299999	7.72900009	-163.02200317
          99	2	33	4	0.0	10.07199955	6.87099981	-161.45500183
         100	2	34	1	0.0	6.30600023	9.52999973	-161.32600403
         101	2	34	3	0.0	6.70200014	10.79599953	-159.32499695
         102	2	34	4	0.0	4.84100008	9.16300011	-161.08200073
         103	2	35	1	0.0	7.22399998	13.15799999	-160.66200256
         104	2	35	3	0.0	5.48000002	14.23999977	-161.90899658
         105	2	35	4	0.0	8.50599957	13.71800041	-161.27999878
         106	2	36	1	0.0	4.74599981	15.92300034	-159.84399414
         107	2	36	3	0.0	4.48000002	18.13999939	-158.96200562
         108	2	36	4	0.0	3.57599998	15.48400021	-158.96200562
         109	2	37	1	0.0	7.1789999	18.72200012	-159.01699829
         110	2	37	3	0.0	9.14099979	18.01000023	-160.20199585
         111	2	37	5	0.0	6.44197874	19.45810893	-160.15125735
         112	2	38	1	0.0	10.17800045	20.55599976	-160.46200562
         113	2	38	3	0.0	11.98099995	21.19799995	-159.01199341
         114	2	38	4	0.0	10.17500019	22.0340004	-160.85400391
         115	2	39	1	0.0	12.77700043	18.60499954	-158.49099731
         116	2	39	3	0.0	14.13000011	18.99399948	-160.43699646
         117	2	39	4	0.0	12.59799957	17.15600014	-158.03199768
         118	2	40	1	0.0	16.52799988	18.69499969	-159.09899902
         119	2	40	3	0.0	16.07600021	16.54899979	-160.07600403
         120	2	40	4	0.0	17.55599976	19.05699921	-158.02600098
         121	2	41	1	0.0	18.72599983	15.99100018	-160.61599731
         122	2	41	3	0.0	17.94000053	14.64999962	-158.78700256
         123	2	41	5	0.0	17.59675513	16.06853059	-161.66021733
         124	2	42	1	0.0	17.04599953	12.58899975	-160.39500427
         125	2	42	3	0.0	17.45800018	11.44499969	-162.46499634
         126	2	42	4	0.0	15.52499962	12.72399998	-160.47599792
         127	2	43	1	0.0	18.38100052	9.13700008	-161.25999451
         128	2	43	3	0.0	18.04100037	7.90799999	-159.227005
         129	2	43	4	0.0	19.89599991	9.19799995	-161.47000122
         130	2	44	1	0.0	17.34900093	5.55700016	-160.4960022
         131	2	44	3	0.0	17.81200027	4.39300013	-162.54400635
         132	2	44	4	0.0	15.83100033	5.46999979	-160.32200623
         133	2	45	1	0.0	18.78499985	2.12899995	-161.30299377
         134	2	45	3	0.0	18.5170002	0.917	-159.24899292
         135	2	45	5	0.0	17.42735298	1.97190628	-162.0127237
         136	2	46	1	0.0	17.95299911	-1.49000001	-160.48300171
         137	2	46	3	0.0	18.48200035	-2.64100003	-162.52099609
         138	2	46	4	0.0	16.44300079	-1.653	-160.29600525
         139	2	47	1	0.0	19.52499962	-4.86399984	-161.26499939
         140	2	47	3	0.0	19.44099998	-6.17399979	-159.25300598
         141	2	47	4	0.0	21.03800011	-4.71400023	-161.43699646
         142	2	48	1	0.0	18.39599991	-8.4119997	-160.49499512
         143	2	48	3	0.0	19.8560009	-9.44099998	-162.09899902
         144	2	48	4	0.0	16.93300056	-8.77299976	-160.75799561
         145	2	49	1	0.0	20.27199936	-11.7159996	-160.58999634
         146	2	49	3	0.0	19.38599968	-12.8579998	-158.67399597
         147	2	49	5	0.0	19.04686372	-12.41147595	-161.21205367
         148	2	50	1	0.0	21.52099991	-14.59599972	-158.44799805
         149	2	50	3	0.0	23.38999939	-16.09900093	-158.55200195
         150	2	50	5	0.0	21.65855218	-13.51756045	-157.35728814
         151	2	51	1	0.0	25.1989994	-14.26799965	-157.55000305
         152	2	51	3	0.0	24.87800026	-14.43200016	-155.17599487
         153	2	51	4	0.0	25.97599983	-12.95400047	-157.65100098
         154	2	52	1	0.0	26.5359993	-16.62299919	-154.88200378
         155	2	52	3	0.0	28.79199982	-16.68799973	-155.56799316
         156	2	52	4	0.0	26.02700043	-18.06399918	-154.93699646
         157	3	53	1	0.0	8.79899979	14.18599987	-166.14500427
         158	3	53	3	0.0	7.92600012	12.61299992	-164.55599976
         159	3	53	4	0.0	8.20400047	15.4090004	-165.44200134
         160	3	54	1	0.0	6.75299978	10.9989996	-166.46699524
         161	3	54	3	0.0	7.22900009	9.88099957	-168.53700256
         162	3	54	4	0.0	5.27299976	11.22000027	-166.78300476
         163	3	55	1	0.0	8.34500027	7.65700006	-167.33000183
         164	3	55	3	0.0	8.06700039	6.40600014	-165.30200195
         165	3	55	4	0.0	9.85599995	7.8119998	-167.52400208
         166	3	56	1	0.0	7.51599979	4.02299976	-166.57099915
         167	3	56	3	0.0	8.02900028	2.88199997	-168.6190033
         168	3	56	4	0.0	6.00699997	3.85599995	-166.39100647
         169	3	57	1	0.0	9.12699986	0.67299998	-167.37399292
         170	3	57	3	0.0	8.86499977	-0.56400001	-165.33500671
         171	3	57	4	0.0	10.63899994	0.83600003	-167.55200195
         172	3	58	1	0.0	8.29699993	-2.95300007	-166.58700562
         173	3	58	3	0.0	8.83300018	-4.09000015	-168.63200378
         174	3	58	4	0.0	6.78700018	-3.12299991	-166.397995
         175	3	59	1	0.0	9.87899971	-6.31799984	-167.38299561
         176	3	59	3	0.0	8.38700008	-7.61600018	-166.022995
         177	3	59	4	0.0	11.33100033	-6.53399992	-166.95100403
         178	3	60	1	0.0	8.37300014	-9.79100037	-167.7250061
         179	3	60	3	0.0	9.66399956	-11.00699997	-169.34300232
         180	3	60	4	0.0	7.04099989	-9.7329998	-168.47399902
         181	3	61	1	0.0	10.07999992	-13.18799973	-167.69700623
         182	3	61	3	0.0	8.67399979	-14.65100002	-166.41299438
         183	3	61	4	0.0	11.34200001	-13.28199959	-166.83700562
         184	3	62	1	0.0	8.33899975	-16.4810009	-168.45500183
         185	3	62	3	0.0	8.88099957	-18.24900055	-166.92399597
         186	3	62	4	0.0	7.77899981	-16.82999992	-169.83500671
         187	3	63	1	0.0	11.16899967	-19.01099968	-168.27000427
         188	3	63	3	0.0	11.61299992	-18.82900047	-165.91799927
         189	3	63	5	0.0	10.08360733	-19.56693118	-167.32954501
         190	3	64	1	0.0	14.06999969	-17.61300087	-166.25300598
         191	3	64	3	0.0	15.68599987	-16.67000008	-167.75799561
         192	3	64	4	0.0	14.88599968	-18.80500031	-165.7519989
         193	3	65	1	0.0	15.92099953	-14.29500008	-166.36799622
         194	3	65	3	0.0	17.52199936	-14.72700024	-164.63200378
         195	3	65	4	0.0	15.35200024	-12.98900032	-165.80900574
         196	3	66	1	0.0	19.70599937	-14.63799953	-166.32000732
         197	3	66	3	0.0	20.63999939	-13.54300022	-164.397995
         198	3	66	4	0.0	20.57900047	-14.85700035	-167.55700684
         199	3	67	1	0.0	20.61400032	-11.02999973	-165.54400635
         200	3	67	3	0.0	20.43700027	-9.46000004	-167.352005
         201	3	67	5	0.0	19.39804614	-11.06974692	-164.59982649
         202	3	68	1	0.0	18.4470005	-7.96700001	-166.15100098
         203	3	68	3	0.0	18.72299957	-6.79199982	-164.07499695
         204	3	68	4	0.0	16.93199921	-8.16699982	-166.22599792
         205	3	69	1	0.0	19.37800026	-4.38800001	-165.26899719
         206	3	69	3	0.0	18.88800049	-3.19700003	-167.29400635
         207	3	69	4	0.0	20.88999939	-4.27400017	-165.06399536
         208	3	70	1	0.0	17.94099998	-0.94499999	-166.0039978
         209	3	70	3	0.0	18.32299995	0.27200001	-163.97200012
         210	3	70	4	0.0	16.41699982	-1.00600004	-166.11500549
         211	3	71	1	0.0	19.10400009	2.5940001	-165.23300171
         212	3	71	3	0.0	18.72299957	3.77699995	-167.28599548
         213	3	71	5	0.0	17.74901849	2.63604057	-164.5023462
         214	3	72	1	0.0	17.91900063	6.11199999	-166.05299377
         215	3	72	3	0.0	18.31999969	7.30700016	-164.01100159
         216	3	72	4	0.0	16.40200043	6.11999989	-166.2519989
         217	3	73	1	0.0	19.10499954	9.63599968	-165.26199341
         218	3	73	3	0.0	18.72699928	10.89400005	-167.27400208
         219	3	73	4	0.0	20.62800026	9.66899967	-165.1190033
         220	3	74	1	0.0	17.66799927	13.08500004	-165.96200562
         221	3	74	3	0.0	19.24500084	14.28499985	-164.60699463
         222	3	74	4	0.0	16.26099968	13.41800022	-165.46299744
         223	3	75	1	0.0	19.54999924	16.3579998	-166.40600586
         224	3	75	3	0.0	21.46199989	17.0720005	-167.66999817
         225	3	75	5	0.0	18.99056909	16.97558092	-167.70108557
         226	3	76	1	0.0	22.68700027	14.59700012	-167.6289978
         227	3	76	3	0.0	23.54599953	16.48800087	-166.42700195
         228	3	76	5	0.0	23.112377	13.85118743	-166.35055419
         229	3	77	1	0.0	25.84799957	16.68400002	-167.94299316
         230	3	77	3	0.0	26.07799911	16.86000061	-170.32600403
         231	3	77	4	0.0	27.13899994	15.99699974	-167.4940033
         232	3	78	1	0.0	26.59000015	19.57500076	-170.29699707
         233	3	78	3	0.0	27.8239994	21.51300049	-170.82899475
         234	3	78	4	0.0	25.27700043	20.16399956	-170.81399536
         235	4	79	1	0.0	12.54899979	-12.47700024	-172.09599304
         236	4	79	3	0.0	11.92700005	-10.95800018	-173.8480072
         237	4	79	4	0.0	11.66699982	-13.71199989	-171.89900208
         238	4	80	1	0.0	9.95300007	-9.7130003	-172.36799622
         239	4	80	3	0.0	10.14299965	-8.50800037	-170.30000305
         240	4	80	4	0.0	8.48099995	-10.12100029	-172.27999878
         241	4	81	1	0.0	10.67199993	-6.079	-171.51100159
         242	4	81	3	0.0	10.08300018	-4.93499994	-173.53399658
         243	4	81	4	0.0	12.17500019	-5.85300016	-171.33200073
         244	4	82	1	0.0	8.9460001	-2.77200007	-172.25900269
         245	4	82	3	0.0	9.16499996	-1.53900003	-170.21099854
         246	4	82	4	0.0	7.44199991	-2.99000001	-172.43099976
         247	4	83	1	0.0	9.67500019	0.87300003	-171.45799255
         248	4	83	3	0.0	9.10999966	2.01200008	-173.49299622
         249	4	83	4	0.0	11.18200016	1.08599997	-171.29100037
         250	4	84	1	0.0	7.95499992	4.17700005	-172.23100281
         251	4	84	3	0.0	8.20400047	5.41599989	-170.19099426
         252	4	84	4	0.0	6.44700003	3.97199988	-172.39399719
         253	4	85	1	0.0	8.70699978	7.82200003	-171.44400024
         254	4	85	3	0.0	7.09899998	8.80900002	-172.92900085
         255	4	85	4	0.0	10.09700012	8.33699989	-171.82099915
         256	4	86	1	0.0	6.40999985	10.84000015	-171.18899536
         257	4	86	3	0.0	7.11999989	12.19699955	-169.33900452
         258	4	86	4	0.0	5.04300022	10.41499996	-170.64700317
         259	4	87	1	0.0	7.26200008	14.52600002	-170.81700134
         260	4	87	3	0.0	4.97700024	15.22799969	-171.04499817
         261	4	87	4	0.0	8.05200005	15.28899956	-171.88200378
         262	4	88	1	0.0	5.06500006	16.96100044	-168.89599609
         263	4	88	3	0.0	5.39300013	18.60400009	-167.17500305
         264	4	88	4	0.0	4.29899979	16.22100067	-167.79899597
         265	4	89	1	0.0	6.76000023	20.36199951	-168.80799866
         266	4	89	3	0.0	7.64099979	21.38699913	-170.79200745
         267	4	89	5	0.0	5.73609085	21.07046774	-169.71424495
         268	4	90	1	0.0	10.27900028	20.88500023	-170.14500427
         269	4	90	3	0.0	11.66800022	19.70999908	-168.57899475
         270	4	90	4	0.0	10.59000015	22.37000084	-169.96099854
         271	4	91	1	0.0	13.53299999	18.9470005	-170.47000122
         272	4	91	3	0.0	14.7159996	20.87899971	-171.26499939
         273	4	91	4	0.0	13.44200039	17.60700035	-171.20199585
         274	4	92	1	0.0	17.16799927	19.61199951	-171.36199951
         275	4	92	3	0.0	18.86199951	18.58200073	-172.71600342
         276	4	92	4	0.0	17.69599915	20.53100014	-170.25999451
         277	4	93	1	0.0	19.31399918	16.50099945	-170.95700073
         278	4	93	3	0.0	19.12700081	15.22599983	-168.93299866
         279	4	93	5	0.0	18.49032761	15.97632216	-172.14774794
         280	4	94	1	0.0	17.94099998	13.05000019	-170.15299988
         281	4	94	3	0.0	18.27199936	11.87800026	-172.22200012
         282	4	94	4	0.0	16.43000031	13.07299995	-169.91600037
         283	4	95	1	0.0	19.02899933	9.51099968	-171.01600647
         284	4	95	3	0.0	18.59499931	8.30500031	-168.98800659
         285	4	95	4	0.0	20.54500008	9.46199989	-171.21699524
         286	4	96	1	0.0	17.72599983	6.01599979	-170.27000427
         287	4	96	3	0.0	18.14500046	4.81699991	-172.30599976
         288	4	96	4	0.0	16.20100021	6.02199984	-170.14399719
         289	4	97	1	0.0	18.99500084	2.51600003	-171.04800415
         290	4	97	3	0.0	18.62100029	1.31299996	-169.0059967
         291	4	97	5	0.0	17.65144659	2.44623859	-171.79740079
         292	4	98	1	0.0	17.86800003	-1.02900004	-170.25900269
         293	4	98	3	0.0	18.34000015	-2.2190001	-172.28799438
         294	4	98	4	0.0	16.34499931	-1.08599997	-170.11000061
         295	4	99	1	0.0	19.23600006	-4.49499989	-171.01899719
         296	4	99	3	0.0	18.91300011	-5.75500011	-168.99899292
         297	4	99	4	0.0	20.75900078	-4.44799995	-171.15699768
         298	4	100	1	0.0	17.98800087	-8.01299953	-170.29899597
         299	4	100	3	0.0	19.66600037	-9.13099957	-171.602005
         300	4	100	4	0.0	16.61899948	-8.44400024	-170.82800293
         301	4	101	1	0.0	20.07299995	-11.14299965	-169.7539978
         302	4	101	3	0.0	22.13100052	-10.02400017	-170.27900696
         303	4	101	5	0.0	19.87675785	-11.49898619	-168.26861482
         304	4	102	1	0.0	23.34199905	-10.65600014	-167.87800598
         305	4	102	3	0.0	24.09900093	-12.92599964	-167.68600464
         306	4	102	5	0.0	23.88035039	-11.15523591	-169.23171994
         307	4	103	1	0.0	25.29800034	-12.55000019	-165.22599792
         308	4	103	3	0.0	23.38299942	-12.7840004	-163.79499817
         309	4	103	4	0.0	26.35099983	-11.89700031	-164.32899475
         310	4	104	1	0.0	23.66900063	-15.51500034	-163.49200439
         311	4	104	3	0.0	23.44599915	-14.91300011	-161.22200012
         312	4	104	4	0.0	23.69400024	-16.93799973	-164.05200195
         313	5	105	1	0.0	8.89000034	15.07299995	-176.73199463
         314	5	105	3	0.0	7.82600021	13.61200047	-175.15100098
         315	5	105	4	0.0	8.7670002	16.14299965	-175.64399719
         316	5	106	1	0.0	6.99100018	11.79699993	-177.05900574
         317	5	106	3	0.0	7.48000002	10.67300034	-179.1230011
         318	5	106	4	0.0	5.51300001	12.01599979	-177.38900757
         319	5	107	1	0.0	8.59599972	8.45600033	-177.90499878
         320	5	107	3	0.0	8.30700016	7.20499992	-175.8789978
         321	5	107	4	0.0	10.1079998	8.60999966	-178.08099365
         322	5	108	1	0.0	7.7420001	4.82700014	-177.15100098
         323	5	108	3	0.0	8.22799969	3.69000006	-179.20899963
         324	5	108	4	0.0	6.23199987	4.67999983	-176.95599365
         325	5	109	1	0.0	9.28199959	1.45200002	-177.98300171
         326	5	109	3	0.0	9.05099964	0.229	-175.93099976
         327	5	109	4	0.0	10.7840004	1.61699998	-178.22200012
         328	5	110	1	0.0	8.53199959	-2.18499994	-177.16600037
         329	5	110	3	0.0	9.09000015	-3.31599998	-179.20799255
         330	5	110	4	0.0	7.02799988	-2.38000011	-176.96899414
         331	5	111	1	0.0	10.14900017	-5.53499985	-177.95599365
         332	5	111	3	0.0	9.0909996	-6.95499992	-176.33500671
         333	5	111	4	0.0	11.64400005	-5.6420002	-177.64900208
         334	5	112	1	0.0	8.57600021	-8.99100018	-178.13000488
         335	5	112	3	0.0	9.69099998	-10.19999981	-179.88000488
         336	5	112	4	0.0	7.16400003	-8.99800014	-178.71899414
         337	5	113	1	0.0	10.43700027	-12.3039999	-178.2519989
         338	5	113	3	0.0	8.76299953	-13.74600029	-177.31300354
         339	5	113	4	0.0	11.63399982	-12.51500034	-177.32299805
         340	5	114	1	0.0	8.90100002	-15.60000038	-179.35499573
         341	5	114	3	0.0	8.70499992	-17.04100037	-177.44400024
         342	5	114	4	0.0	8.96899986	-16.15999985	-180.7769928
         343	5	115	1	0.0	11.24800014	-18.09000015	-177.69900513
         344	5	115	3	0.0	11.86400032	-16.72100067	-175.82499695
         345	5	115	5	0.0	10.1210546	-17.8648686	-176.67386634
         346	5	116	1	0.0	14.57600021	-17.16200066	-176.11399841
         347	5	116	3	0.0	15.13099957	-15.83300018	-178.03500366
         348	5	116	4	0.0	15.43000031	-18.28800011	-175.52999878
         349	5	117	1	0.0	17.5170002	-14.91899967	-176.98899841
         350	5	117	3	0.0	18.97200012	-15.39799976	-175.13999939
         351	5	117	4	0.0	16.91399956	-13.51500034	-177.05700684
         352	5	118	1	0.0	21.15500069	-14.11100006	-176.23899841
         353	5	118	3	0.0	21.52799988	-13.16800022	-174.06300354
         354	5	118	4	0.0	22.2140007	-13.85900021	-177.31399536
         355	5	119	1	0.0	20.77099991	-10.61600018	-174.79800415
         356	5	119	3	0.0	21.10099983	-8.89799976	-176.44200134
         357	5	119	5	0.0	19.2912071	-10.89007388	-174.4713593
         358	5	120	1	0.0	18.71299934	-7.6170001	-175.9019928
         359	5	120	3	0.0	18.97800064	-6.42999983	-173.83200073
         360	5	120	4	0.0	17.20599937	-7.72700024	-176.13600159
         361	5	121	1	0.0	19.59799957	-4.02199984	-175.03700256
         362	5	121	3	0.0	19.10000038	-2.84200001	-177.06700134
         363	5	121	4	0.0	21.1079998	-3.88700008	-174.83500671
         364	5	122	1	0.0	18.10499954	-0.60500002	-175.78700256
         365	5	122	3	0.0	18.45800018	0.61799997	-173.75300598
         366	5	122	4	0.0	16.58200073	-0.69300002	-175.91099548
         367	5	123	1	0.0	19.19599915	2.95600009	-175.01300049
         368	5	123	3	0.0	18.78899956	4.13000011	-177.06599426
         369	5	123	5	0.0	17.84099518	2.96991162	-174.28131016
         370	5	124	1	0.0	17.93899918	6.44799995	-175.83299255
         371	5	124	3	0.0	18.31999969	7.65600014	-173.79499817
         372	5	124	4	0.0	16.42000008	6.42799997	-176.0249939
         373	5	125	1	0.0	19.08300018	9.98999977	-175.05200195
         374	5	125	3	0.0	18.92499924	11.3380003	-177.03300476
         375	5	125	4	0.0	20.60400009	10.0340004	-174.89300537
         376	5	126	1	0.0	17.36300087	13.2840004	-175.84899902
         377	5	126	3	0.0	18.88299942	14.56499958	-174.50300598
         378	5	126	4	0.0	15.94900036	13.59300041	-175.35299683
         379	5	127	1	0.0	19.20599937	16.56500053	-176.38299561
         380	5	127	3	0.0	17.20199966	17.81299973	-175.94500732
         381	5	127	5	0.0	19.08567656	16.45368822	-174.85174383
         382	5	128	1	0.0	18.24399948	20.21500015	-176.82299805
         383	5	128	3	0.0	18.47500038	21.74900055	-178.65499878
         384	5	128	5	0.0	17.46757259	19.76130746	-178.07316772
         385	5	129	1	0.0	21.04500008	22.50900078	-177.98199463
         386	5	129	3	0.0	23.05900002	21.39299965	-177.30099487
         387	5	129	4	0.0	21.12700081	23.81599998	-177.19400024
         388	5	130	1	0.0	24.29500008	21.65200043	-179.75799561
         389	5	130	3	0.0	25.88999939	22.2310009	-181.39599609
         390	5	130	4	0.0	24.32799911	20.12400055	-179.69999695
         391	6	131	1	0.0	12.67500019	-11.76200008	-181.77200317
         392	6	131	3	0.0	12.72099972	-10.10499954	-183.50900269
         393	6	131	4	0.0	13.91100025	-12.30900002	-182.48899841
         394	6	132	1	0.0	10.46399975	-8.7869997	-182.61300659
         395	6	132	3	0.0	10.70899963	-7.58400011	-180.55000305
         396	6	132	4	0.0	8.95100021	-8.97299957	-182.74499512
         397	6	133	1	0.0	11.33500004	-5.18300009	-181.772995
         398	6	133	3	0.0	10.79599953	-4.02299976	-183.80200195
         399	6	133	4	0.0	12.84599972	-5.01800013	-181.59700012
         400	6	134	1	0.0	9.74100018	-1.81400001	-182.53700256
         401	6	134	3	0.0	10.02200031	-0.57700002	-180.49899292
         402	6	134	4	0.0	8.22900009	-1.97000003	-182.70500183
         403	6	135	1	0.0	10.61400032	1.80799997	-181.772995
         404	6	135	3	0.0	10.02400017	2.95900011	-183.79200745
         405	6	135	4	0.0	12.13099957	1.995	-181.68400574
         406	6	136	1	0.0	8.85099983	5.09800005	-182.51600647
         407	6	136	3	0.0	9.0880003	6.33599997	-180.47399902
         408	6	136	4	0.0	7.34499979	4.87400007	-182.67500305
         409	6	137	1	0.0	9.57199955	8.74699974	-181.72399902
         410	6	137	3	0.0	8.53600025	9.82699966	-183.60099792
         411	6	137	4	0.0	11.06700039	9.06799984	-181.7539978
         412	6	138	1	0.0	7.67600012	12.01399994	-182.14900208
         413	6	138	3	0.0	8.72399998	13.43900013	-180.52600098
         414	6	138	4	0.0	6.21400023	11.93099976	-181.70500183
         415	6	139	1	0.0	8.84899998	15.63000011	-182.20599365
         416	6	139	3	0.0	7.05200005	16.70299911	-183.38200378
         417	6	139	4	0.0	10.07499981	15.92300034	-183.07299805
         418	6	140	1	0.0	6.81699991	18.78000069	-181.57600403
         419	6	140	3	0.0	6.23600006	20.14500046	-183.46400452
         420	6	140	4	0.0	6.85599995	19.61100006	-180.29299927
         421	6	141	1	0.0	8.85200024	20.7329998	-184.1230011
         422	6	141	3	0.0	10.83300018	19.69199944	-184.99299622
         423	6	141	5	0.0	8.62431849	19.55807013	-185.09217667
         424	6	142	1	0.0	12.55300045	21.57600021	-183.93699646
         425	6	142	3	0.0	12.63700008	20.31800079	-181.89300537
         426	6	142	4	0.0	13.10400009	22.97800064	-183.67599487
         427	6	143	1	0.0	15.04599953	19.10199928	-182.48399353
         428	6	143	3	0.0	16.80400085	19.00300026	-184.11599731
         429	6	143	4	0.0	14.35200024	17.73999977	-182.54699707
         430	6	144	1	0.0	18.80999947	18.62599945	-182.2539978
         431	6	144	3	0.0	19.44000053	18.68499947	-179.93800354
         432	6	144	4	0.0	19.3939991	19.9659996	-182.70500183
         433	6	145	1	0.0	21.12299919	16.50099945	-180.11300659
         434	6	145	3	0.0	20.93499947	14.63700008	-178.61300659
         435	6	145	5	0.0	21.91540231	15.64031631	-181.11446644
         436	6	146	1	0.0	18.60300064	13.68099976	-179.74299622
         437	6	146	3	0.0	18.9489994	12.52400017	-181.81900024
         438	6	146	4	0.0	17.09700012	13.92500019	-179.85800171
         439	6	147	1	0.0	19.75399971	10.16600037	-180.6230011
         440	6	147	3	0.0	19.36400032	8.95699978	-178.58700562
         441	6	147	4	0.0	21.26799965	10.15299988	-180.84599304
         442	6	148	1	0.0	18.56500053	6.63800001	-179.8500061
         443	6	148	3	0.0	18.94499969	5.45699978	-181.90600586
         444	6	148	4	0.0	17.04999924	6.63199997	-179.64599609
         445	6	149	1	0.0	19.77000046	3.12599993	-180.67500305
         446	6	149	3	0.0	19.4109993	1.92900002	-178.6269989
         447	6	149	5	0.0	18.40812613	3.06850535	-181.39165687
         448	6	150	1	0.0	18.67000008	-0.42300001	-179.86799622
         449	6	150	3	0.0	19.12000084	-1.60899997	-181.90499878
         450	6	150	4	0.0	17.15200043	-0.47499999	-179.68600464
         451	6	151	1	0.0	19.9829998	-3.90499997	-180.64500427
         452	6	151	3	0.0	19.52400017	-5.20100021	-178.67500305
         453	6	151	4	0.0	21.51199913	-3.9230001	-180.70500183
         454	6	152	1	0.0	18.52099991	-7.3670001	-180.06799316
         455	6	152	3	0.0	20.20499992	-8.5539999	-181.30200195
         456	6	152	4	0.0	17.17099953	-7.7329998	-180.68699646
         457	6	153	1	0.0	20.47699928	-10.56200027	-179.42500305
         458	6	153	3	0.0	22.73399925	-10.65299988	-180.23800659
         459	6	153	5	0.0	20.56731603	-10.62228865	-177.88883633
         460	6	154	1	0.0	23.61000061	-8.54300022	-178.68600464
         461	6	154	3	0.0	24.57600021	-10.73999977	-178.61999512
         462	6	154	5	0.0	23.82659973	-9.03627076	-180.12869968
         463	6	155	1	0.0	26.4489994	-10.09799957	-176.69400024
         464	6	155	3	0.0	26.42000008	-8.80300045	-174.67199707
         465	6	155	4	0.0	27.81399918	-9.84500027	-177.33599854
         466	6	156	1	0.0	26.91200066	-10.9630003	-173.02200317
         467	6	156	3	0.0	29.26399994	-11.00800037	-173.20300293
         468	6	156	4	0.0	26.62000084	-12.3409996	-172.42599487
         469	7	157	1	0.0	10.61499977	15.06700039	-187.61000061
         470	7	157	3	0.0	10.57400036	13.40200043	-185.8809967
         471	7	157	4	0.0	12.02799988	15.39299965	-187.1210022
         472	7	158	1	0.0	8.67000008	11.83600044	-187.13000488
         473	7	158	3	0.0	9.11800003	10.68599987	-189.18899536
         474	7	158	4	0.0	7.13999987	11.8760004	-187.16099548
         475	7	159	1	0.0	10.13500023	8.42800045	-187.95899963
         476	7	159	3	0.0	9.79500008	7.19799995	-185.92799377
         477	7	159	4	0.0	11.65299988	8.51799965	-188.1289978
         478	7	160	1	0.0	9.12199974	4.84299994	-187.18899536
         479	7	160	3	0.0	9.56200027	3.67499995	-189.23899841