ITEM: TIMESTEP
0
ITEM: NUMBER OF ATOMS
624
ITEM: BOX BOUNDS ss ss ss
3.5359919800000004e+00 2.9304007940000002e+01
-1.9606939180000001e+01 2.3856007980000001e+01
-1.9518101447000001e+02 -1.5016899162999999e+02
ITEM: ATOMS id type xs ys zs
1 1 0.137341 0.753675 0.865347
2 3 0.106644 0.71723 0.90136
3 4 0.192409 0.757701 0.877477
4 1 0.086076 0.671858 0.860015
5 3 0.111301 0.647884 0.814183
6 4 0.0278255 0.671122 0.853439
7 1 0.166719 0.6012 0.841353
8 3 0.163148 0.572003 0.886519
9 4 0.223805 0.609874 0.837243
10 1 0.155193 0.515794 0.858549
11 3 0.181 0.491429 0.813027
12 4 0.0981452 0.50712 0.862814
13 1 0.234283 0.444308 0.840665
14 3 0.230325 0.415111 0.88583
15 4 0.291602 0.452591 0.836866
16 1 0.220351 0.358994 0.857749
17 3 0.246391 0.33479 0.812206
18 4 0.163109 0.350665 0.861792
19 1 0.298549 0.287209 0.83962
20 3 0.283026 0.257321 0.883587
21 4 0.35614 0.295101 0.836443
22 1 0.294047 0.201297 0.855239
23 3 0.369606 0.18434 0.828646
24 4 0.249302 0.183327 0.841176
25 1 0.406046 0.147964 0.874433
26 3 0.35319 0.102569 0.871568
27 4 0.431077 0.147527 0.905247
28 1 0.423704 0.0698512 0.837843
29 3 0.420522 0.0193714 0.859437
30 4 0.465073 0.0622586 0.814605
31 1 0.442875 0.0394345 0.916245
32 3 0.524177 0.0170246 0.930752
33 5 0.427415 0.0667997 0.936094
34 1 0.566633 0.071945 0.949791
35 3 0.587473 0.10388 0.991647
36 4 0.607071 0.0705644 0.924998
37 1 0.558095 0.157972 0.964165
38 3 0.625116 0.170719 0.999111
39 4 0.523091 0.159353 0.99158
40 1 0.702227 0.174814 0.956678
41 3 0.774798 0.19276 0.928041
42 4 0.729238 0.147481 0.971518
43 1 0.7259 0.185099 0.8739
44 3 0.719419 0.226859 0.839198
45 5 0.764649 0.207346 0.888632
46 1 0.621391 0.244414 0.857394
47 3 0.627173 0.271931 0.903515
48 4 0.563839 0.235855 0.856327
49 1 0.643395 0.328462 0.877055
50 3 0.621779 0.354461 0.831667
51 4 0.70118 0.334145 0.882542
52 1 0.578004 0.404734 0.859526
53 3 0.586309 0.433034 0.905048
54 4 0.519714 0.399902 0.855194
55 1 0.605635 0.488622 0.877588
56 3 0.585532 0.514713 0.832045
57 5 0.552975 0.485683 0.893516
58 1 0.544513 0.565998 0.859504
59 3 0.554641 0.594275 0.904936
60 4 0.486029 0.562133 0.854883
61 1 0.574201 0.649701 0.877277
62 3 0.55891 0.681038 0.834178
63 4 0.632761 0.655108 0.879365
64 1 0.489638 0.719715 0.862481
65 3 0.534849 0.75096 0.898049
66 4 0.431543 0.718151 0.869235
67 1 0.523673 0.80473 0.865991
68 3 0.593216 0.814624 0.900182
69 5 0.542731 0.810482 0.834043
70 1 0.666912 0.783931 0.86688
71 3 0.678671 0.837125 0.879565
72 5 0.653581 0.78965 0.89977
73 1 0.767463 0.844074 0.845863
74 3 0.7259 0.852978 0.798898
75 4 0.824006 0.836343 0.838621
76 1 0.727258 0.916296 0.804163
77 3 0.770956 0.899638 0.761019
78 4 0.716625 0.947311 0.818981
79 1 0.298898 0.122034 0.748111
80 3 0.280852 0.152358 0.704745
81 4 0.275342 0.091916 0.736781
82 1 0.223068 0.195821 0.73496
83 3 0.232343 0.223614 0.780747
84 4 0.164429 0.190759 0.732893
85 1 0.256287 0.278834 0.75351
86 3 0.235486 0.305362 0.708322
87 4 0.314887 0.282722 0.757576
88 1 0.194389 0.356233 0.736248
89 3 0.203547 0.384418 0.781836
90 4 0.135944 0.352253 0.731805
91 1 0.224969 0.439729 0.75431
92 3 0.205332 0.465959 0.708744
93 4 0.283375 0.44371 0.759131
94 1 0.164157 0.517221 0.736204
95 3 0.175062 0.54559 0.781525
96 4 0.105519 0.513724 0.73196
97 1 0.196562 0.600671 0.753644
98 3 0.155115 0.628948 0.714454
99 4 0.253648 0.609207 0.749267
100 1 0.107498 0.670386 0.752133
101 3 0.122866 0.699514 0.796588
102 4 0.0506445 0.661942 0.757553
103 1 0.143123 0.753859 0.766884
104 3 0.0754427 0.778754 0.739181
105 4 0.192875 0.766744 0.753155
106 1 0.0469577 0.817477 0.785057
107 3 0.0366349 0.868485 0.804652
108 4 0.00155262 0.807376 0.804652
109 1 0.141377 0.881876 0.80343
110 3 0.217518 0.865494 0.777104
111 5 0.112775 0.898813 0.778231
112 1 0.257762 0.924073 0.771327
113 3 0.327732 0.938844 0.803541
114 4 0.257645 0.958079 0.762619
115 1 0.358623 0.879184 0.815116
116 3 0.41113 0.888134 0.771883
117 4 0.351677 0.845846 0.825313
118 1 0.504191 0.881255 0.801608
119 3 0.48665 0.83188 0.779903
120 4 0.544086 0.889584 0.825446
121 1 0.589491 0.819041 0.767906
122 3 0.558988 0.788187 0.80854
123 5 0.545667 0.820825 0.744708
124 1 0.524294 0.740768 0.772816
125 3 0.540283 0.714446 0.726828
126 4 0.465267 0.743874 0.771017
127 1 0.576102 0.661344 0.753599
128 3 0.562907 0.633067 0.798765
129 4 0.634896 0.662747 0.748934
130 1 0.536052 0.578975 0.770572
131 3 0.55402 0.552193 0.725073
132 4 0.477142 0.576973 0.774438
133 1 0.59178 0.500103 0.752644
134 3 0.58138 0.472217 0.798276
135 5 0.539093 0.496488 0.736876
136 1 0.559492 0.416836 0.770861
137 3 0.580022 0.390354 0.725584
138 4 0.500893 0.413086 0.775015
139 1 0.620498 0.339207 0.753488
140 3 0.617238 0.309066 0.798187
141 4 0.679214 0.342658 0.749667
142 1 0.576684 0.257574 0.770595
143 3 0.633344 0.233899 0.73496
144 4 0.519908 0.249268 0.764752
145 1 0.649488 0.181556 0.768484
146 3 0.615104 0.15528 0.81105
147 5 0.601943 0.165554 0.754664
148 1 0.697959 0.115292 0.816071
149 3 0.77049 0.080711 0.813761
150 5 0.703297 0.140105 0.840303
151 1 0.840694 0.122839 0.836021
152 3 0.828236 0.119066 0.888763
153 4 0.870847 0.153072 0.833778
154 1 0.89258 0.0686548 0.895294
155 3 0.98013 0.0671593 0.880054
156 4 0.872827 0.0355001 0.894073
157 1 0.204246 0.777511 0.645072
158 3 0.170367 0.74132 0.680374
159 4 0.181155 0.80565 0.66069
160 1 0.124845 0.704185 0.637919
161 3 0.143318 0.678462 0.591931
162 4 0.0674094 0.709269 0.630898
163 1 0.186627 0.627292 0.618746
164 3 0.175838 0.598508 0.663801
165 4 0.245266 0.630858 0.614436
166 1 0.154455 0.54368 0.635608
167 3 0.174364 0.517428 0.590109
168 4 0.0958944 0.539838 0.639607
169 1 0.216975 0.466603 0.617769
170 3 0.206807 0.438142 0.663067
171 4 0.275652 0.470353 0.613814
172 1 0.184764 0.383176 0.635253
173 3 0.205565 0.357015 0.58982
174 4 0.126164 0.379264 0.639452
175 1 0.246158 0.305753 0.617569
176 3 0.188257 0.275889 0.647783
177 4 0.302507 0.300784 0.627166
178 1 0.187714 0.225846 0.609971
179 3 0.237814 0.197868 0.574025
180 4 0.136022 0.227181 0.593331
181 1 0.253959 0.147688 0.610593
182 3 0.199395 0.114027 0.639119
183 4 0.302934 0.145525 0.629699
184 1 0.186394 0.0719219 0.593753
185 3 0.207428 0.0312436 0.627766
186 4 0.164662 0.0638921 0.563094
187 1 0.29622 0.0137114 0.597863
188 3 0.313451 0.0178989 0.650116
189 5 0.254099 0.000920508 0.618756
190 1 0.408802 0.0458767 0.642673
191 3 0.471515 0.0675734 0.609238
192 4 0.440469 0.0184511 0.653803
193 1 0.480635 0.122218 0.640118
194 3 0.542766 0.112278 0.678686
195 4 0.458553 0.152266 0.652537
196 1 0.627522 0.114326 0.641184
197 3 0.663769 0.13952 0.683884
198 4 0.661402 0.109287 0.613703
199 1 0.66276 0.197339 0.658424
200 3 0.655891 0.233462 0.618257
201 5 0.615571 0.196425 0.6794
202 1 0.578663 0.267813 0.644939
203 3 0.589374 0.294847 0.69106
204 4 0.51987 0.263211 0.643273
205 1 0.614793 0.350159 0.664534
206 3 0.595778 0.377562 0.619546
207 4 0.673471 0.352782 0.669088
208 1 0.559027 0.429376 0.648205
209 3 0.573851 0.457377 0.693348
210 4 0.499884 0.427972 0.645739
211 1 0.60416 0.510802 0.665334
212 3 0.589374 0.53802 0.619724
213 5 0.551576 0.511769 0.681566
214 1 0.558173 0.591744 0.647116
215 3 0.573735 0.619239 0.692482
216 4 0.499301 0.591928 0.642695
217 1 0.604199 0.672825 0.66469
218 3 0.58953 0.701769 0.61999
219 4 0.663303 0.673584 0.667866
220 1 0.548432 0.75218 0.649138
221 3 0.609632 0.779789 0.679241
222 4 0.49383 0.759841 0.660224
223 1 0.621468 0.827485 0.639274
224 3 0.695669 0.843913 0.611193
225 5 0.599758 0.841694 0.610502
226 1 0.743208 0.786968 0.612103
227 3 0.776544 0.830476 0.638807
228 5 0.759716 0.769808 0.640506
229 1 0.86588 0.834986 0.605128
230 3 0.874806 0.839035 0.552186
231 4 0.915981 0.819179 0.615103
232 1 0.894675 0.901502 0.55283
233 3 0.942564 0.946092 0.541011
234 4 0.843721 0.915054 0.541345
235 1 0.349775 0.164046 0.512863
236 3 0.325637 0.198996 0.47394
237 4 0.315547 0.135631 0.51724
238 1 0.24903 0.227641 0.506821
239 3 0.256403 0.255366 0.552764
240 4 0.191905 0.218253 0.508776
241 1 0.276933 0.311252 0.52586
242 3 0.254075 0.337574 0.480916
243 4 0.335261 0.316452 0.529837
244 1 0.209951 0.38734 0.509242
245 3 0.218449 0.415709 0.554741
246 4 0.151584 0.382324 0.505421
247 1 0.238241 0.471205 0.527037
248 3 0.216315 0.497411 0.481827
249 4 0.296725 0.476105 0.530747
250 1 0.171492 0.547223 0.509864
251 3 0.181155 0.57573 0.555185
252 4 0.11297 0.542507 0.506243
253 1 0.200675 0.631088 0.527348
254 3 0.138273 0.653797 0.494357
255 4 0.254618 0.642937 0.518973
256 1 0.111534 0.700526 0.533014
257 3 0.139087 0.731748 0.574113
258 4 0.0584837 0.690748 0.545055
259 1 0.144598 0.785334 0.541278
260 3 0.0559224 0.801486 0.536213
261 4 0.175256 0.802889 0.517617
262 1 0.0593374 0.841359 0.583956
263 3 0.0720664 0.879161 0.62219
264 4 0.0296107 0.824333 0.608327
265 1 0.125117 0.919609 0.58591
266 3 0.159306 0.943193 0.541833
267 5 0.085381 0.93591 0.565777
268 1 0.261681 0.931643 0.556207
269 3 0.315585 0.904608 0.590998
270 4 0.273751 0.96581 0.560295
271 1 0.387962 0.887053 0.548987
272 3 0.433871 0.931505 0.531325
273 4 0.38443 0.856222 0.532725
274 1 0.529028 0.902353 0.52917
275 3 0.594769 0.878655 0.499089
276 4 0.549519 0.923498 0.553653
277 1 0.61231 0.830775 0.538168
278 3 0.605053 0.80144 0.583133
279 5 0.580345 0.818703 0.511714
280 1 0.559027 0.751374 0.55603
281 3 0.571872 0.724409 0.510064
282 4 0.500388 0.751903 0.561295
283 1 0.60125 0.669949 0.536857
284 3 0.584407 0.642201 0.581911
285 4 0.660082 0.668821 0.532392
286 1 0.550683 0.589535 0.55343
287 3 0.566943 0.561949 0.508198
288 4 0.491501 0.589673 0.55623
289 1 0.59993 0.509007 0.536146
290 3 0.585416 0.481328 0.581512
291 5 0.54779 0.507402 0.519497
292 1 0.556194 0.427443 0.553675
293 3 0.574511 0.400064 0.508598
294 4 0.497089 0.426132 0.556985
295 1 0.609283 0.347697 0.53679
296 3 0.596748 0.318707 0.581667
297 4 0.668387 0.348778 0.533724
298 1 0.560851 0.266755 0.552786
299 3 0.62597 0.241032 0.523838
300 4 0.507723 0.256838 0.541033
301 1 0.641765 0.194739 0.564894
302 3 0.721631 0.220485 0.55323
303 5 0.634149 0.186549 0.597894
304 1 0.768628 0.205944 0.606571
305 3 0.798005 0.153716 0.610837
306 5 0.78952 0.194458 0.576497
307 1 0.844536 0.162367 0.665489
308 3 0.770219 0.156983 0.697281
309 4 0.8854 0.177391 0.685417
310 1 0.781318 0.0941478 0.704012
311 3 0.772664 0.107999 0.754443
312 4 0.782288 0.0614072 0.691571
313 1 0.207777 0.79792 0.409869
314 3 0.166486 0.764305 0.444993
315 4 0.203004 0.822538 0.43404
316 1 0.134081 0.722545 0.402604
317 3 0.153058 0.696684 0.356749
318 4 0.0767233 0.727584 0.395272
319 1 0.196368 0.645675 0.383809
320 3 0.185152 0.616892 0.428819
321 4 0.255045 0.649218 0.379899
322 1 0.163226 0.562179 0.40056
323 3 0.182086 0.536018 0.354839
324 4 0.104626 0.558796 0.404892
325 1 0.22299 0.484526 0.382076
326 3 0.214025 0.456387 0.427664
327 4 0.281279 0.488323 0.376766
328 1 0.193884 0.400846 0.400227
329 3 0.215539 0.374824 0.354861
330 4 0.135517 0.396359 0.404603
331 1 0.256636 0.323769 0.382676
332 3 0.215578 0.291097 0.418688
333 4 0.314654 0.321307 0.389496
334 1 0.195592 0.244253 0.37881
335 3 0.238862 0.216436 0.339932
336 4 0.140795 0.244092 0.365725
337 1 0.267813 0.168027 0.3761
338 3 0.202849 0.134849 0.396961
339 4 0.314266 0.163172 0.396739
340 1 0.208204 0.0921921 0.351595
341 3 0.200598 0.0590374 0.394051
342 4 0.210843 0.0793075 0.320004
343 1 0.299286 0.0349019 0.388385
344 3 0.323192 0.0664 0.430019
345 5 0.255552 0.0400817 0.41116
346 1 0.428438 0.0562534 0.423598
347 3 0.449977 0.0868312 0.380921
348 4 0.46158 0.0303463 0.436573
349 1 0.542572 0.107861 0.404159
350 3 0.599038 0.0968397 0.445237
351 4 0.519171 0.140164 0.402648
352 1 0.683755 0.126451 0.420821
353 3 0.69823 0.148148 0.469164
354 4 0.724852 0.132249 0.396939
355 1 0.668853 0.206864 0.452835
356 3 0.681659 0.246392 0.416311
357 5 0.611425 0.200559 0.460092
358 1 0.588986 0.275866 0.428308
359 3 0.59927 0.303176 0.474296
360 4 0.530503 0.273335 0.423109
361 1 0.623331 0.35858 0.447525
362 3 0.604005 0.385729 0.402426
363 4 0.681931 0.361686 0.452013
364 1 0.565391 0.437199 0.430863
365 3 0.57909 0.465337 0.476051
366 4 0.506287 0.435174 0.428108
367 1 0.60773 0.51913 0.448058
368 3 0.591936 0.546142 0.402448
369 5 0.555146 0.519451 0.464314
370 1 0.558949 0.599475 0.429841
371 3 0.573735 0.627269 0.475118
372 4 0.5 0.599015 0.425576
373 1 0.603345 0.680969 0.447192
374 3 0.597214 0.711984 0.403181
375 4 0.662372 0.681982 0.450724
376 1 0.536596 0.756758 0.429486
377 3 0.595584 0.786232 0.459389
378 4 0.481722 0.763868 0.440505
379 1 0.608119 0.832248 0.417622
380 3 0.530348 0.860962 0.427353
381 5 0.603449 0.829687 0.451641
382 1 0.570785 0.916227 0.407847
383 3 0.57975 0.951522 0.367147
384 5 0.540654 0.905789 0.380073
385 1 0.679486 0.969008 0.382098
386 3 0.757645 0.943331 0.397228
387 4 0.682668 0.999079 0.399605
388 1 0.805611 0.94929 0.342642
389 3 0.86751 0.962612 0.306252
390 4 0.806892 0.914134 0.343931
391 1 0.354665 0.180497 0.297898
392 3 0.35645 0.218622 0.259309
393 4 0.402631 0.167912 0.281969
394 1 0.268861 0.248946 0.279214
395 3 0.278369 0.276625 0.325047
396 4 0.210145 0.244667 0.276282
397 1 0.302662 0.331867 0.297876
398 3 0.281745 0.358557 0.252799
399 4 0.361301 0.335664 0.301786
400 1 0.240803 0.409382 0.280903
401 3 0.251708 0.437843 0.32618
402 4 0.182125 0.405793 0.277171
403 1 0.274682 0.492717 0.297876
404 3 0.251785 0.519199 0.253021
405 4 0.333553 0.49702 0.299853
406 1 0.206264 0.568414 0.281369
407 3 0.215461 0.596898 0.326735
408 4 0.147819 0.56326 0.277837
409 1 0.234244 0.65237 0.298965
410 3 0.194039 0.677219 0.257265
411 4 0.292262 0.659756 0.298298
412 1 0.160665 0.727538 0.289523
413 3 0.201335 0.760324 0.32558
414 4 0.103928 0.725628 0.299387
415 1 0.206186 0.810735 0.288257
416 3 0.136449 0.835423 0.26213
417 4 0.253765 0.817477 0.268995
418 1 0.127329 0.883211 0.302253
419 3 0.104781 0.914617 0.260308
420 4 0.128842 0.90233 0.330756
421 1 0.206303 0.928146 0.245668
422 3 0.283181 0.904194 0.22634
423 5 0.197467 0.901113 0.224137
424 1 0.34993 0.947541 0.2498
425 3 0.35319 0.918597 0.29521
426 4 0.371313 0.979799 0.255599
427 1 0.446678 0.890619 0.282081
428 3 0.514902 0.888341 0.245824
429 4 0.419745 0.859282 0.280681
430 1 0.592751 0.879667 0.28719
431 3 0.6172 0.881025 0.338643
432 4 0.615414 0.910498 0.277171
433 1 0.682513 0.830775 0.334755
434 3 0.675217 0.787888 0.36808
435 5 0.713264 0.810973 0.312506
436 1 0.584717 0.765892 0.342975
437 3 0.598145 0.739272 0.296854
438 4 0.526273 0.771506 0.34042
439 1 0.629385 0.685019 0.323425
440 3 0.61425 0.657202 0.368657
441 4 0.68814 0.68472 0.318471
442 1 0.583243 0.603846 0.340598
443 3 0.59799 0.576674 0.294921
444 4 0.524449 0.603708 0.34513
445 1 0.630006 0.523042 0.32227
446 3 0.616074 0.495501 0.367769
447 5 0.577155 0.521719 0.306348
448 1 0.587318 0.441386 0.340198
449 3 0.604781 0.414098 0.294944
450 4 0.528407 0.44019 0.344242
451 1 0.638272 0.361272 0.322936
452 3 0.620459 0.331453 0.366702
453 4 0.697609 0.360858 0.321603
454 1 0.581535 0.281618 0.335755
455 3 0.646888 0.254307 0.30834
456 4 0.529145 0.273197 0.322003
457 1 0.657443 0.208107 0.35004
458 3 0.745032 0.206013 0.331978
459 5 0.660948 0.20672 0.384168
460 1 0.779028 0.25456 0.366458
461 3 0.816516 0.204011 0.367924
462 5 0.787434 0.243211 0.334407
463 1 0.889203 0.218783 0.410713
464 3 0.888078 0.248578 0.455634
465 4 0.942176 0.224604 0.39645
466 1 0.907171 0.198881 0.492291
467 3 0.998447 0.197845 0.48827
468 4 0.89584 0.167175 0.505532
469 1 0.274721 0.797782 0.1682
470 3 0.27313 0.759473 0.206612
471 4 0.329556 0.805282 0.179064
472 1 0.19924 0.723442 0.178864
473 3 0.216625 0.696983 0.13312
474 4 0.139864 0.724363 0.178175
475 1 0.256093 0.645031 0.160446
476 3 0.242898 0.616731 0.205568
477 4 0.315003 0.647102 0.15667
478 1 0.216781 0.562547 0.177553
479 3 0.233856 0.535673 0.13201
480 4 0.157987 0.56066 0.181863
481 1 0.27084 0.48333 0.159558
482 3 0.260129 0.455651 0.205279
483 4 0.329401 0.485493 0.154381
484 1 0.234671 0.400731 0.178153
485 3 0.253454 0.373972 0.132765
486 4 0.176071 0.398016 0.182951
487 1 0.29036 0.321767 0.160558
488 3 0.244179 0.293145 0.197703
489 4 0.349115 0.31919 0.164756
490 1 0.240143 0.239628 0.164668
491 3 0.281008 0.209948 0.126255
492 4 0.184221 0.23804 0.153337
493 1 0.314538 0.164115 0.164223
494 3 0.248681 0.13195 0.185662
495 4 0.361068 0.159928 0.184951
496 1 0.256209 0.0870153 0.142496
497 3 0.252833 0.040792 0.171666
498 4 0.254812 0.0746829 0.110682
499 1 0.354665 0.0448644 0.190416
500 3 0.440818 0.0599807 0.204546
501 5 0.357869 0.069693 0.214756
502 1 0.487931 0.032532 0.156225
503 3 0.493946 0.0830118 0.134853
504 4 0.498525 0.0160123 0.126878
505 1 0.564964 0.104248 0.175976
506 3 0.623642 0.0854047 0.213188
507 4 0.526816 0.12675 0.190349
508 1 0.700287 0.127901 0.200613
509 3 0.706186 0.147135 0.250511
510 4 0.743014 0.134803 0.177975
511 1 0.687946 0.207578 0.234693
512 3 0.699899 0.248325 0.199347
513 5 0.630582 0.200405 0.241338
514 1 0.606799 0.276832 0.212322
515 3 0.618519 0.303752 0.258398
516 4 0.547928 0.274715 0.208434
517 1 0.646577 0.358626 0.231783
518 3 0.628648 0.386213 0.186773
519 4 0.705371 0.36049 0.236226
520 1 0.593177 0.438395 0.215254
521 3 0.607886 0.466235 0.260508
522 4 0.534034 0.437383 0.212188
523 1 0.638544 0.519729 0.23256
524 3 0.624534 0.546832 0.186817
525 5 0.585788 0.52089 0.248597
526 1 0.593488 0.600717 0.213854
527 3 0.607886 0.628166 0.259376
528 4 0.534849 0.600694 0.208456
529 1 0.636914 0.682212 0.231761
530 3 0.622633 0.711179 0.187061
531 4 0.695941 0.683477 0.235182
532 1 0.578663 0.760877 0.21592
533 3 0.636332 0.78966 0.247268
534 4 0.523401 0.767756 0.226362
535 1 0.65073 0.836596 0.206723
536 3 0.735292 0.816211 0.217364
537 5 0.641274 0.846295 0.174265
538 1 0.777049 0.833214 0.16329
539 3 0.77701 0.860525 0.116925
540 5 0.788666 0.867847 0.166122
541 1 0.796686 0.808895 0.0829558
542 3 0.774526 0.755309 0.0855108
543 4 0.853811 0.812231 0.0743582
544 1 0.736728 0.752663 0.0281483
545 3 0.767851 0.710144 0.000888829
546 4 0.697299 0.762119 0.00446589
547 1 0.283142 0.165795 0.061806
548 3 0.263001 0.1975 0.0196616
549 4 0.278912 0.138576 0.0404118
550 1 0.225202 0.245748 0.0532528
551 3 0.242394 0.272115 0.0990627
552 4 0.165826 0.245127 0.0534749
553 1 0.282133 0.324091 0.0718921
554 3 0.269482 0.352437 0.0267486
555 4 0.340966 0.321928 0.0759132
556 1 0.243558 0.406667 0.054719
557 3 0.25943 0.433287 0.100596
558 4 0.184919 0.408438 0.0496758
559 1 0.295172 0.486298 0.0734918
560 3 0.281202 0.51446 0.0283704
561 4 0.354083 0.485332 0.0776461
562 1 0.251785 0.568069 0.056474
563 3 0.268434 0.594896 0.102084
564 4 0.192914 0.569104 0.0522531
565 1 0.302468 0.648022 0.0747359
566 3 0.276661 0.675194 0.0307254
567 4 0.361534 0.647493 0.0780682
568 1 0.268123 0.731472 0.0588513
569 3 0.29917 0.761705 0.099796
570 4 0.209679 0.736488 0.0623168
571 1 0.349309 0.804293 0.064361
572 3 0.316439 0.836343 0.0252157
573 4 0.406202 0.801555 0.0550522
574 1 0.296608 0.885926 0.0618728
575 3 0.315585 0.937602 0.0772685
576 4 0.237931 0.882958 0.0576072
577 1 0.319621 0.923383 0.13703
578 3 0.412682 0.925569 0.136453
579 5 0.292343 0.949004 0.119292
580 1 0.416757 0.986333 0.118658
581 3 0.438606 0.945402 0.0850887
582 4 0.445087 0.991717 0.14805
583 1 0.536169 0.968134 0.0723144
584 3 0.532404 0.923567 0.10375
585 4 0.588986 0.983825 0.0756468
586 1 0.563296 0.883165 0.0598066
587 3 0.636797 0.897016 0.0897319
588 4 0.573114 0.868186 0.0295701
589 1 0.65721 0.837448 0.10766
590 3 0.652049 0.807353 0.152271
591 5 0.679158 0.816547 0.0830559
592 1 0.600745 0.758829 0.125633
593 3 0.612931 0.731886 0.0796011
594 4 0.542106 0.759657 0.130921
595 1 0.641843 0.677265 0.106283
596 3 0.62566 0.64977 0.151604
597 4 0.700481 0.676069 0.10124
598 1 0.592557 0.596737 0.123567
599 3 0.607342 0.569288 0.0780906
600 4 0.533608 0.597151 0.127478
601 1 0.638621 0.515702 0.105661
602 3 0.623525 0.488139 0.151049
603 5 0.586149 0.514739 0.0893108
604 1 0.593216 0.434461 0.12319
605 3 0.610214 0.407058 0.0779573
606 4 0.53419 0.433793 0.126811
607 1 0.643317 0.354139 0.105861
608 3 0.632141 0.324505 0.150449
609 4 0.702421 0.354392 0.102773
610 1 0.588443 0.274623 0.121723
611 3 0.649682 0.24607 0.0924422
612 4 0.53547 0.265236 0.109393
613 1 0.671686 0.204127 0.136786
614 3 0.751746 0.223499 0.116991
615 5 0.669694 0.199751 0.170718
616 1 0.801032 0.225938 0.171443
617 3 0.851909 0.18901 0.144517
618 5 0.80728 0.232349 0.137986
619 1 0.893201 0.162137 0.194859
620 3 0.876901 0.156086 0.247068
621 4 0.948812 0.174193 0.192749
622 1 0.887806 0.0928823 0.246334
623 3 0.929408 0.0940327 0.292989
624 4 0.880743 0.0596126 0.236004
