LAMMPS protain data file

        1122  atoms
        1494  bonds
           0  angles
           0  dihedrals
           0  impropers

           5  atom types
           5  bond types
           0  angle types
           0  dihedral types
           0  improper types

-200.0	200.0	xlo xhi
-200.0	200.0	ylo yhi
-200.0	200.0	zlo zhi

Masses

           1	27.0
           2	14.0
           3	28.0
           4	60.0
           5	60.0

Atoms

           1	1	1	1	0.0	21.94000053	14.57199955	50.64300156
           2	1	1	3	0.0	21.26799965	12.28999996	50.84400177
           3	1	1	4	0.0	23.4470005	14.6789999	50.39199829
           4	1	2	1	0.0	20.75699997	12.04100037	48.04100037
           5	1	2	3	0.0	21.45000076	10.14500046	46.82300186
           6	1	2	4	0.0	19.62000084	12.55900002	47.16600037
           7	1	3	1	0.0	23.91300011	11.1260004	46.13399887
           8	1	3	3	0.0	24.36599922	9.63700008	47.9090004
           9	1	3	4	0.0	25.22900009	11.86699963	46.11999893
          10	1	4	1	0.0	24.39500046	7.40399981	46.35200119
          11	1	4	3	0.0	23.2159996	5.50299978	47.03900146
          12	1	4	5	0.0	24.07710768	6.84365453	44.95323125
          13	1	5	1	0.0	20.94599915	6.6079998	47.7879982
          14	1	5	3	0.0	19.71199989	7.19500017	45.78900146
          15	1	5	4	0.0	20.5340004	7.19999981	49.14500046
          16	1	6	1	0.0	17.59000015	5.54699993	46.45600128
          17	1	6	3	0.0	16.63599968	7.12599993	47.96500015
          18	1	6	4	0.0	16.9090004	4.21299982	46.9090004
          19	1	7	1	0.0	15.2510004	8.57400036	46.16999817
          20	1	7	3	0.0	13.5880003	7.1789999	45.24499893
          21	1	7	4	0.0	15.39799976	9.74699974	45.14300156
          22	1	8	1	0.0	11.56000042	7.87300014	46.86000061
          23	1	8	3	0.0	11.12899971	10.20100021	47.12099838
          24	1	8	4	0.0	10.86299992	7.37200022	48.12400055
          25	1	9	1	0.0	9.4829998	10.46700001	44.95700073
          26	1	9	3	0.0	7.82800007	8.93299961	44.25999832
          27	1	9	4	0.0	10.42599964	11.20199966	44.02199936
          28	1	10	1	0.0	6.24499989	10.76799965	42.94800186
          29	1	10	3	0.0	7.57800007	11.25300026	40.97000122
          30	1	10	4	0.0	5.16599989	11.84399986	43.11100006
          31	1	11	1	0.0	5.9369998	9.72500038	39.31700134
          32	1	11	3	0.0	3.67000008	8.9829998	39.63499832
          33	1	11	4	0.0	6.95599985	8.65799999	39.06800079
          34	1	12	1	0.0	3.04699993	9.11999989	36.89599991
          35	1	12	3	0.0	4.11800003	7.71799994	35.25899887
          36	1	12	4	0.0	2.65799999	10.18900013	35.89199829
          37	1	13	1	0.0	2.9849999	5.34600019	36.19100189
          38	1	13	3	0.0	0.68400002	5.26499987	35.68299866
          39	1	13	4	0.0	3.09899998	4.296	37.35400009
          40	1	14	1	0.0	0.972	3.93400002	33.32500076
          41	1	14	3	0.0	1.95700002	1.72599995	32.99499893
          42	1	14	4	0.0	1.13300002	4.28700018	31.84900093
          43	1	15	1	0.0	-0.009	0.47299999	34.57600021
          44	1	15	3	0.0	-0.223	-1.45000005	33.19200134
          45	1	15	4	0.0	-0.87	0.296	35.84500122
          46	1	16	1	0.0	-2.1559999	-0.42899999	31.55800056
          47	1	16	3	0.0	-2.7019999	1.76199996	30.82099915
          48	1	16	4	0.0	-3.49099994	-1.04900002	31.85199928
          49	1	17	1	0.0	-3.12299991	0.79799998	28.19300079
          50	1	17	3	0.0	-5.31400013	0.75599998	29.12100029
          51	1	17	4	0.0	-3.37700009	-0.044	27.00799942
          52	1	18	1	0.0	-5.91599989	3.24499989	27.79899979
          53	1	18	3	0.0	-7.62699986	3.68899989	29.40200043
          54	1	18	4	0.0	-6.94899988	2.44199991	26.99099922
          55	1	19	1	0.0	-5.98500013	3.97399998	31.54400063
          56	1	19	3	0.0	-4.54799986	5.79799986	31.17900085
          57	1	19	4	0.0	-5.37799978	2.95600009	32.51599884
          58	1	20	1	0.0	-5.34899998	7.28100014	33.43000031
          59	1	20	3	0.0	-3.74600005	5.74499989	34.32300186
          60	1	20	4	0.0	-6.26100016	7.74900007	34.51100159
          61	1	21	1	0.0	-1.83800006	7.79899979	34.7120018
          62	1	21	3	0.0	-3.10299993	8.39400005	36.65399933
          63	1	21	4	0.0	-1.00999999	9.03899956	34.40100098
          64	1	22	1	0.0	-1.56900001	6.86000013	38.39099884
          65	1	22	3	0.0	0.73799998	7.22900009	38.79100037
          66	1	22	4	0.0	-1.551	5.39699984	38.77000046
          67	1	23	1	0.0	0.41600001	9.39099979	40.39099884
          68	1	23	3	0.0	-0.112	8.55799961	42.54399872
          69	1	23	4	0.0	-0.065	10.82600021	40.64799881
          70	1	24	1	0.0	2.34299994	7.43599987	42.97499847
          71	1	24	3	0.0	4.59600019	8.07999992	42.62900162
          72	1	24	4	0.0	1.86099994	5.96600008	42.96099854
          73	1	25	1	0.0	5.50699997	6.91099977	44.89300156
          74	1	25	3	0.0	5.81599998	4.70499992	44.18399811
          75	1	25	4	0.0	5.54699993	6.7420001	46.40000153
          76	1	26	1	0.0	8.35299969	5.16499996	43.19100189
          77	1	26	3	0.0	9.94499969	6.32000017	44.57899857
          78	1	26	4	0.0	8.47000027	5.35300016	41.60599899
          79	1	27	1	0.0	11.99400043	4.4369998	44.1269989
          80	1	27	3	0.0	12.74699974	3.71099997	41.9640007
          81	1	27	4	0.0	12.38300037	3.18700004	44.84400177
          82	1	28	1	0.0	14.6619997	5.7579999	41.84400177
          83	1	28	3	0.0	16.62400055	6.14799976	43.21900177
          84	1	28	4	0.0	14.50300026	7.23699999	41.39300156
          85	1	29	1	0.0	17.95599937	3.95099998	42.17200089
          86	1	29	3	0.0	18.78899956	5.82700014	40.92499924
          87	1	29	4	0.0	18.33499908	2.70099998	41.40399933
          88	1	30	1	0.0	21.23600006	5.85300016	42.12900162
          89	1	30	3	0.0	21.62700081	4.3499999	40.2859993
          90	1	30	4	0.0	22.21999931	5.63399982	43.26399994
          91	1	31	1	0.0	23.11499977	6.17000008	38.81200027
          92	1	31	3	0.0	25.14800072	5.28000021	39.76399994
          93	1	31	4	0.0	23.4489994	7.57200003	38.34899902
          94	1	32	1	0.0	25.60000038	3.50600004	37.68500137
          95	1	32	3	0.0	26.39999962	5.40799999	36.45999908
          96	1	32	4	0.0	25.18600082	2.18199992	37.04199982
          97	1	33	1	0.0	28.71899986	4.32499981	35.63499832
          98	1	33	3	0.0	27.30599976	4.19199991	33.70800018
          99	1	33	4	0.0	29.84399986	3.42400002	35.20000076
         100	1	34	1	0.0	27.98900032	6.79199982	32.85599899
         101	1	34	3	0.0	25.95199966	7.18599987	31.69199944
         102	1	34	4	0.0	28.39299965	6.02600002	31.58699989
         103	1	35	1	0.0	24.38500023	7.45100021	33.97499847
         104	1	35	3	0.0	25.34900093	9.08399963	35.40599823
         105	1	35	4	0.0	23.59300041	6.38399982	34.67100143
         106	1	36	1	0.0	23.10899925	10.79699993	35.31600189
         107	1	36	3	0.0	20.76399994	10.32299995	35.31399918
         108	1	36	4	0.0	23.22699928	11.83600044	34.11600113
         109	1	37	1	0.0	20.21999931	11.27799988	37.7879982
         110	1	37	3	0.0	20.63699913	13.60900021	38.1590004
         111	1	37	4	0.0	20.28700066	10.72599983	39.20999908
         112	1	38	1	0.0	18.13299942	14.38799953	37.05799866
         113	1	38	3	0.0	16.00399971	13.87100029	37.95600128
         114	1	38	4	0.0	17.74300003	14.4989996	35.53499985
         115	1	39	1	0.0	15.62699986	16.38400078	39.10800171
         116	1	39	3	0.0	15.41499996	18.01199913	37.31299973
         117	1	39	4	0.0	15.9989996	17.34799957	40.25299835
         118	1	40	1	0.0	12.86499977	17.29700089	36.67300034
         119	1	40	3	0.0	11.96500015	18.77300072	38.30500031
         120	1	40	4	0.0	11.77700043	16.30599976	36.40999985
         121	1	41	1	0.0	11.78800011	20.91500092	36.5530014
         122	1	41	3	0.0	9.54899979	21.56699944	36.21099854
         123	1	41	4	0.0	12.87300014	22.00099945	36.28900146
         124	1	42	1	0.0	9.38399982	21.04500008	33.58499908
         125	1	42	3	0.0	10.34000015	19.52700043	32.04299927
         126	1	42	4	0.0	9.46500015	22.40299988	32.90999985
         127	1	43	1	0.0	8.06900024	18.47400093	31.05200005
         128	1	43	3	0.0	5.87400007	19.2140007	30.77199936
         129	1	43	4	0.0	8.01000023	17.0170002	31.65999985
         130	1	44	1	0.0	5.81899977	19.01600075	27.98399925
         131	1	44	3	0.0	5.5079999	16.6079998	27.78100014
         132	1	44	5	0.0	4.92987921	19.27567326	29.21429793
         133	1	45	1	0.0	2.96799994	16.7840004	26.92099953
         134	1	45	3	0.0	2.36899996	17.57999992	24.70999908
         135	1	45	4	0.0	1.53100002	16.95000076	27.49099922
         136	1	46	1	0.0	3.80800009	15.56799984	23.40200043
         137	1	46	3	0.0	2.44400001	13.57900047	23.70299911
         138	1	46	4	0.0	5.25899982	15.10999966	23.06699944
         139	1	47	1	0.0	1.25699997	13.57699966	21.30400085
         140	1	47	3	0.0	1.15799999	11.24800014	21.54899979
         141	1	47	4	0.0	0.759	13.81099987	19.91500092
         142	1	48	1	0.0	3.81999993	10.66699982	21.28300095
         143	1	48	3	0.0	3.48600006	8.7869997	22.77000046
         144	1	48	4	0.0	5.30200005	10.72500038	20.98699951
         145	1	49	1	0.0	3.22799993	10.19099998	25.06800079
         146	1	49	3	0.0	1.52999997	8.66699982	25.68000031
         147	1	49	4	0.0	3.3499999	11.19699955	26.20700073
         148	1	50	1	0.0	-0.551	9.85200024	24.3390007
         149	1	50	3	0.0	-1.44700003	7.72200012	23.65699959
         150	1	50	4	0.0	-1.41700006	10.94400024	23.79500008
         151	1	51	1	0.0	0.35699999	7.29300022	21.61000061
         152	1	51	3	0.0	0.185	4.954	22.1079998
         153	1	51	4	0.0	1.46099997	7.41699982	20.52000046
         154	1	52	1	0.0	1.76300001	5.0630002	24.40800095
         155	1	52	3	0.0	0.099	3.46600008	25.17399979
         156	1	52	4	0.0	2.83899999	5.49399996	25.45499992
         157	1	53	1	0.0	-1.51600003	5.3119998	26.34300041
         158	1	53	3	0.0	-3.02900004	3.5480001	25.7159996
         159	1	53	4	0.0	-2.18899989	6.61999989	26.87199974
         160	1	54	1	0.0	-3.53699994	4.42199993	23.30900002
         161	1	54	3	0.0	-3.85400009	2.42400002	22.09900093
         162	1	54	4	0.0	-3.99000001	5.42799997	22.26099968
         163	1	55	1	0.0	-1.30700004	1.52699995	22.09199905
         164	1	55	3	0.0	-0.454	0.85500002	19.96299934
         165	1	55	5	0.0	0.13208776	1.80723501	22.56326822
         166	1	56	1	0.0	-0.39399999	3.35800004	18.81100082
         167	1	56	3	0.0	1.70099998	2.79900002	17.72900009
         168	1	56	4	0.0	-0.76099998	4.80700016	18.55500031
         169	1	57	1	0.0	3.26699996	3.45000005	19.91300011
         170	1	57	3	0.0	3.31699991	2.64499998	22.15600014
         171	1	57	4	0.0	3.89400005	4.78200006	20.27400017
         172	1	58	1	0.0	4.17700005	0.13	21.51099968
         173	1	58	3	0.0	6.53900003	0.31099999	21.60099983
         174	1	58	4	0.0	4.09499979	-1.16799998	20.66500092
         175	1	59	1	0.0	6.66300011	0.089	24.36800003
         176	1	59	3	0.0	5.08799982	-0.79799998	25.93199921
         177	1	59	4	0.0	7.13700008	1.54100001	24.70299911
         178	1	60	1	0.0	6.72200012	-2.35500002	27.41699982
         179	1	60	3	0.0	6.56099987	-0.625	29.08399963
         180	1	60	4	0.0	8.00500011	-3.0309999	27.83699989
         181	1	61	1	0.0	4.17000008	-1.57799995	30.23500061
         182	1	61	3	0.0	4.94899988	-3.55599999	31.27300072
         183	1	61	4	0.0	2.71399999	-1.58399999	29.90399933
         184	1	62	1	0.0	4.04699993	-0.64200002	33.18999863
         185	1	62	3	0.0	6.421	-0.30000001	32.75
         186	1	62	4	0.0	3.74799991	-0.77600002	34.69200134
         187	1	63	1	0.0	6.16800022	2.38000011	32.18700027
         188	1	63	3	0.0	4.8579998	4.15899992	33.13800049
         189	1	63	4	0.0	6.17299986	2.45799994	30.58099937
         190	1	64	1	0.0	6.9369998	5.93900013	33.27899933
         191	1	64	3	0.0	8.34799957	6.52699995	31.3579998
         192	1	64	4	0.0	7.94099998	6.36100006	34.36700058
         193	1	65	1	0.0	6.3920002	7.80700016	29.99500084
         194	1	65	3	0.0	7.60599995	9.57900047	31.20999908
         195	1	65	4	0.0	4.99399996	7.875	29.40699959
         196	1	66	1	0.0	7.47399998	11.43299961	29.16600037
         197	1	66	3	0.0	9.73499966	10.67700005	28.97599983
         198	1	66	5	0.0	6.8781825	11.719824	27.77519725
         199	1	67	1	0.0	10.3739996	12.51900005	26.98600006
         200	1	67	3	0.0	11.86699963	14.14400005	26.13699913
         201	1	67	4	0.0	10.38799953	11.65600014	25.67499924
         202	1	68	1	0.0	10.13399982	16.32799911	26.23800087
         203	1	68	3	0.0	9.26299953	17.38400078	28.18199921
         204	1	68	4	0.0	8.96399975	16.80900002	25.44099998
         205	1	69	1	0.0	11.65299988	17.94499969	29.37199974
         206	1	69	3	0.0	13.8920002	18.65099907	28.71999931
         207	1	69	4	0.0	11.56999969	16.80500031	30.39900017
         208	1	70	1	0.0	14.40100002	19.85400009	31.20599937
         209	1	70	3	0.0	13.34799957	19.81100082	33.39599991
         210	1	70	4	0.0	14.36800003	21.31999969	30.75799942
         211	1	71	1	0.0	15.7869997	19.55800056	34.7179985
         212	1	71	3	0.0	18.00099945	20.45999908	34.26399994
         213	1	71	5	0.0	15.42697855	21.05221691	34.81444677
         214	1	72	1	0.0	18.94499969	19.84300041	36.83599854
         215	1	72	3	0.0	18.92099953	17.7329998	37.97200012
         216	1	72	4	0.0	18.73399925	20.83399963	37.97900009
         217	1	73	1	0.0	21.56299973	17.13100052	37.40399933
         218	1	73	3	0.0	22.17000008	18.02599907	39.54800034
         219	1	73	4	0.0	22.9829998	17.09000015	36.79299927
         220	1	74	1	0.0	21.28700066	15.83100033	41.02700043
         221	1	74	3	0.0	23.37800026	15.51099968	42.01800156
         222	1	74	4	0.0	20.04700089	15.07600021	41.54399872
         223	1	75	1	0.0	24.15500069	13.29500008	40.70899963
         224	1	75	3	0.0	23.73399925	12.41600037	38.56600189
         225	1	75	4	0.0	24.0739994	12.2329998	41.77600098
         226	1	76	1	0.0	26.38599968	11.60900021	38.10400009
         227	1	76	3	0.0	27.50600052	10.19499969	39.70000076
         228	1	76	4	0.0	27.46199989	12.43700027	37.33399963
         229	1	77	1	0.0	27.55400085	8.00399971	37.99000168
         230	1	77	3	0.0	29.45400047	9.07800007	36.95999908
         231	1	77	5	0.0	27.90224068	8.48872232	39.40964002
         232	1	78	1	0.0	31.26799965	7.06500006	37.61299896
         233	1	78	3	0.0	30.86499977	6.60400009	35.2879982
         234	1	78	4	0.0	31.89999962	5.75500011	38.09899902
         235	1	79	1	0.0	32.97700119	7.9829998	34.33499908
         236	1	79	3	0.0	32.77399826	9.47999954	32.50299835
         237	1	79	5	0.0	34.17351039	8.87757254	34.70877089
         238	1	80	1	0.0	30.59399986	10.90200043	33.38800049
         239	1	80	3	0.0	32.01300049	12.62300014	34.28900146
         240	1	80	4	0.0	29.28000069	11.26099968	34.14199829
         241	1	81	1	0.0	32.53300095	13.84000015	31.9640007
         242	1	81	3	0.0	32.2519989	16.08399963	31.39100075
         243	1	81	4	0.0	33.73400116	13.5909996	31.09799957
         244	1	82	1	0.0	30.00799942	15.86100006	30.03899956
         245	1	82	3	0.0	28.46100044	17.61599922	30.33600044
         246	1	82	4	0.0	29.42099953	15.31599998	28.73900032
         247	1	83	1	0.0	27.73699951	17.06299973	32.89199829
         248	1	83	3	0.0	29.01099968	15.95199966	34.64400101
         249	1	83	4	0.0	26.22400093	16.65299988	32.82500076
         250	1	84	1	0.0	28.22100067	17.84399986	36.54399872
         251	1	84	3	0.0	26.02899933	18.79599953	36.69599915
         252	1	84	4	0.0	29.23600006	18.93799973	36.83200073
         253	1	85	1	0.0	25.71500015	18.18099976	39.44499969
         254	1	85	3	0.0	26.39599991	20.46299934	39.35900116
         255	1	85	4	0.0	26.11899948	17.69400024	40.81600189
         256	1	86	1	0.0	23.87299919	21.45400047	39.29399872
         257	1	86	3	0.0	23.18400002	22.91399956	37.625
         258	1	86	5	0.0	22.37017763	21.11802841	39.30981417
         259	1	87	1	0.0	23.98900032	21.5720005	35.39599991
         260	1	87	3	0.0	21.77799988	20.63400078	35.35800171
         261	1	87	4	0.0	24.76300049	20.75099945	34.4280014
         262	1	88	1	0.0	20.77099991	22.41799927	33.55699921
         263	1	88	3	0.0	21.96800041	21.56100082	31.64299965
         264	1	88	4	0.0	20.30699921	23.78800011	33.06999969
         265	1	89	1	0.0	20.12700081	19.59799957	31.0340004
         266	1	89	3	0.0	17.72900009	19.53899956	30.90200043
         267	1	89	4	0.0	20.68700027	18.2310009	31.58600044
         268	1	90	1	0.0	17.65099907	18.30800056	28.45299911
         269	1	90	3	0.0	18.98999977	16.55699921	27.5
         270	1	90	4	0.0	17.38999939	19.1590004	27.16799927
         271	1	91	1	0.0	17.25900078	14.45300007	28.22699928
         272	1	91	3	0.0	16.08399963	14.88899994	26.16699982
         273	1	91	4	0.0	16.22900009	13.77999973	29.06900024
         274	1	92	1	0.0	17.51799965	13.19699955	24.60400009
         275	1	92	3	0.0	17.36000061	10.85700035	24.57699966
         276	1	92	4	0.0	18.90099907	13.21199989	23.98999977
         277	1	93	1	0.0	14.99400043	10.59300041	23.40399933
         278	1	93	3	0.0	15.60400009	8.69299984	22.03899956
         279	1	93	4	0.0	13.49100018	10.77999973	23.15099907
         280	1	94	1	0.0	17.26499939	10.05000019	20.30900002
         281	1	94	3	0.0	19.02700043	11.42099953	21.03499985
         282	1	94	4	0.0	17.12000084	10.83100033	19.00399971
         283	1	95	1	0.0	20.80200005	9.4090004	21.76799965
         284	1	95	3	0.0	21.52599907	9.86100006	19.52599907
         285	1	95	4	0.0	21.20400047	8.0369997	22.25900078
         286	1	96	1	0.0	24.02899933	10.50699997	20.17099953
         287	1	96	3	0.0	25.96999931	10.29699993	21.51099968
         288	1	96	4	0.0	24.36000061	11.97200012	20.04599953
         289	1	97	1	0.0	26.55599976	7.74700022	21.06100082
         290	1	97	3	0.0	28.94199944	7.96999979	21.12299919
         291	1	97	4	0.0	26.45400047	6.21999979	20.81999969
         292	1	98	1	0.0	29.18700027	9.33100033	18.77899933
         293	1	98	3	0.0	30.95599937	8.51799965	17.39699936
         294	1	98	5	0.0	28.48808904	9.56237514	17.4263764
         295	1	99	1	0.0	30.59600067	5.86499977	17.84199905
         296	1	99	3	0.0	30.72599983	4.34100008	16.05699921
         297	1	99	4	0.0	30.92399979	4.86299992	18.95499992
         298	1	100	1	0.0	28.0739994	4.12099981	15.5
         299	1	100	3	0.0	28.36199951	5.92299986	13.92199993
         300	1	100	4	0.0	26.62599945	3.81200004	15.90299988
         301	1	101	1	0.0	27.81999969	4.23500013	11.69200039
         302	1	101	3	0.0	27.34199905	6.34899998	10.59399986
         303	1	101	4	0.0	27.26799965	2.96499991	11.00699997
         304	1	102	1	0.0	24.94300079	6.796	11.89099979
         305	1	102	3	0.0	25.54400063	9.04699993	11.90799999
         306	1	102	4	0.0	23.55400085	6.5250001	12.48799992
         307	1	103	1	0.0	26.62400055	9.10000038	14.40799999
         308	1	103	3	0.0	28.02799988	10.86699963	13.61299992
         309	1	103	4	0.0	27.05699921	8.76799965	15.83199978
         310	1	104	1	0.0	29.80999947	9.18099976	12.18900013
         311	1	104	3	0.0	30.20599937	10.04699993	9.99100018
         312	1	104	4	0.0	30.82600021	8.05900002	12.07600021
         313	1	105	1	0.0	27.70800018	9.88799953	9.01599979
         314	1	105	3	0.0	26.66799927	11.76299953	10.05099964
         315	1	105	4	0.0	26.47599983	9.16300011	8.60900021
         316	1	106	1	0.0	27.46100044	13.67000008	8.28499985
         317	1	106	3	0.0	25.65299988	15.17199993	8.83500004
         318	1	106	4	0.0	28.17499924	14.21800041	7.07299995
         319	1	107	1	0.0	23.70199966	13.56700039	7.6960001
         320	1	107	3	0.0	21.72699928	13.30099964	9.00500011
         321	1	107	4	0.0	23.21999931	13.40299988	6.23000002
         322	1	108	1	0.0	22.13899994	10.8039999	9.75300026
         323	1	108	3	0.0	23.15600014	11.74699974	11.75
         324	1	108	5	0.0	21.05987177	11.85334517	9.42749002
         325	1	109	1	0.0	20.92399979	11.36900043	13.32600021
         326	1	109	3	0.0	20.20899963	10.36400032	15.31799984
         327	1	109	4	0.0	20.09900093	12.62800026	13.53999996
         328	1	110	1	0.0	18.95400047	8.14900017	14.25199986
         329	1	110	3	0.0	20.17900085	6.07600021	14.18799973
         330	1	110	4	0.0	17.93899918	7.52600002	13.31200027
         331	1	111	1	0.0	21.69799995	6.67299986	16.48900032
         332	1	111	3	0.0	20.14800072	4.95499992	17.23600006
         333	1	111	4	0.0	22.10899925	7.34399986	17.79599953
         334	1	112	1	0.0	21.81399918	2.92499995	16.63100052
         335	1	112	3	0.0	20.98500061	1.42700005	18.26399994
         336	1	112	4	0.0	22.91500092	2.11100006	15.93700027
         337	1	113	1	0.0	21.59000015	2.9000001	20.47599983
         338	1	113	3	0.0	19.81299973	3.34299994	22.0359993
         339	1	113	4	0.0	22.5720005	3.57999992	21.39599991
         340	1	114	1	0.0	18.01600075	4.28399992	20.2689991
         341	1	114	3	0.0	17.37100029	1.96099997	20.39100075
         342	1	114	4	0.0	17.2859993	4.91400003	19.05200005
         343	1	115	1	0.0	15.24300003	2.41799998	22.0890007
         344	1	115	3	0.0	12.86200047	2.19700003	21.97800064
         345	1	115	4	0.0	15.08399963	2.62100005	23.61700058
         346	1	116	1	0.0	12.56599998	3.523	19.5739994
         347	1	116	3	0.0	11.04599953	2.21099997	18.32799911
         348	1	116	4	0.0	12.57499981	4.91400003	18.90200043
         349	1	117	1	0.0	12.73400021	0.90799999	16.77199936
         350	1	117	3	0.0	11.5880003	-1.13800001	16.75399971
         351	1	117	4	0.0	13.75800037	0.72299999	15.66399956
         352	1	118	1	0.0	12.77099991	-2.28200006	19.00499916
         353	1	118	3	0.0	13.72500038	-2.24000001	21.20499992
         354	1	118	4	0.0	13.95300007	-3.25600004	18.73999977
         355	1	119	1	0.0	11.72000027	-0.847	22.47400093
         356	1	119	3	0.0	10.99199963	-2.88800001	23.51300049
         357	1	119	4	0.0	10.44799995	-0.033	22.65500069
         358	1	120	1	0.0	13.04300022	-2.69400001	25.53100014
         359	1	120	3	0.0	12.20800018	-2.66199994	27.7840004
         360	1	120	4	0.0	14.54199982	-2.94899988	25.77199936
         361	1	121	1	0.0	12.02499962	0.025	27.9810009
         362	1	121	3	0.0	12.66300011	-0.2	30.22400093
         363	1	121	5	0.0	12.72925582	1.30064842	27.48265933
         364	1	122	1	0.0	15.36499977	-0.29300001	29.90099907
         365	1	122	3	0.0	16.40800095	1.57700002	28.74099922
         366	1	122	4	0.0	16.05599976	-1.70099998	29.89699936
         367	1	123	1	0.0	18.56999969	1.60899997	30.4279995
         368	1	123	3	0.0	19.10700035	-0.23899999	28.97599983
         369	1	123	4	0.0	19.31299973	1.69299996	31.7329998
         370	1	124	1	0.0	21.42399979	0.83899999	28.00399971
         371	1	124	3	0.0	22.33399963	-1.29100001	27.72200012
         372	1	124	4	0.0	22.65200043	1.71099997	27.64100075
         373	1	125	1	0.0	22.47800064	-2.03800011	30.2859993
         374	1	125	3	0.0	21.5739994	-4.10500002	31.08799934
         375	1	125	4	0.0	23.25300026	-1.80999994	31.63199997
         376	1	126	1	0.0	19.16500092	-3.85299993	30.125
         377	1	126	3	0.0	17.59799957	-4.6079998	31.69099998
         378	1	126	5	0.0	18.09957632	-2.90224314	29.54834415
         379	1	127	1	0.0	17.9640007	-2.95799994	33.66500092
         380	1	127	3	0.0	17.31299973	-0.74400002	33.06100082
         381	1	127	4	0.0	18.89800072	-3.171	34.90499878
         382	1	128	1	0.0	15.54300022	-0.461	35.24000168
         383	1	128	3	0.0	16.69300079	-0.36899999	37.40399933
         384	1	128	4	0.0	14.12100029	-0.917	35.36600113
         385	1	129	1	0.0	16.01199913	2.19300008	37.8370018
         386	1	129	3	0.0	14.86900043	3.15700006	39.67100143
         387	1	129	4	0.0	16.66600037	3.52099991	37.42200089
         388	1	130	1	0.0	12.36200047	2.42400002	38.87900162
         389	1	130	3	0.0	11.60299969	0.15700001	38.89799881
         390	1	130	4	0.0	11.39799976	2.9920001	37.82799911
         391	1	131	1	0.0	10.44400024	0.301	41.42200089
         392	1	131	3	0.0	9.33100033	2.03200006	42.54000092
         393	1	131	4	0.0	11.17700005	-0.322	42.59000015
         394	1	132	1	0.0	6.83099985	0.99400002	42.42399979
         395	1	132	3	0.0	5.88700008	-1.22000003	42.25500107
         396	1	132	4	0.0	6.04099989	1.70599997	41.35400009
         397	1	133	1	0.0	4.875	-1.29499996	44.8409996
         398	1	133	3	0.0	5.10500002	-3.68199992	44.59199905
         399	1	133	4	0.0	3.49900007	-1.48300004	44.13999939
         400	1	134	1	0.0	7.86100006	-3.68400002	44.79100037
         401	1	134	3	0.0	9.12300014	-4.77400017	43.10400009
         402	1	134	5	0.0	9.09855368	-2.77005925	44.72191112
         403	1	135	1	0.0	7.454	-4.25400019	41.00299835
         404	1	135	3	0.0	8.40299988	-2.10700011	40.52500153
         405	1	135	4	0.0	6.0710001	-4.21000004	40.35100174
         406	1	136	1	0.0	10.12899971	-2.9849999	38.48799896
         407	1	136	3	0.0	8.18999958	-2.7650001	37.09400177
         408	1	136	4	0.0	11.03999996	-3.97099996	37.81600189
         409	1	137	1	0.0	8.73400021	-0.27599999	36.1230011
         410	1	137	3	0.0	10.80500031	0.30199999	35.10499954
         411	1	137	4	0.0	8.20400047	1.0	36.76200104
         412	1	138	1	0.0	9.95199966	0.257	32.54700089
         413	1	138	3	0.0	9.4659996	2.60100007	32.69100189
         414	1	138	4	0.0	9.25	-0.234	31.28899956
         415	1	139	1	0.0	11.7510004	3.32299995	31.17200089
         416	1	139	3	0.0	10.65699959	2.66700006	29.12299919
         417	1	139	4	0.0	13.26200008	3.40400004	31.05800056
         418	1	140	1	0.0	10.47599983	5.1329999	27.96199989
         419	1	140	3	0.0	11.9829998	7.00899982	27.69300079
         420	1	140	4	0.0	9.21899986	5.96600008	28.09000015
         421	1	141	1	0.0	13.08100033	5.79199982	25.33200073
         422	1	141	3	0.0	14.94499969	7.31599998	25.55500031
         423	1	141	4	0.0	12.44699955	6.9000001	24.44000053
         424	1	142	1	0.0	15.84799957	6.2249999	27.92900085
         425	1	142	3	0.0	16.59799957	8.24600029	28.92200089
         426	1	142	5	0.0	15.28014712	5.54602995	29.18921647
         427	1	143	1	0.0	14.16499996	9.43099976	29.27599907
         428	1	143	3	0.0	13.70899963	9.45300007	31.55699921
         429	1	143	4	0.0	13.61999989	10.42399979	28.1989994
         430	1	144	1	0.0	10.97399998	8.80099964	31.37299919
         431	1	144	3	0.0	11.3760004	10.1420002	33.36899948
         432	1	144	4	0.0	11.31099987	7.62300014	32.34799957
         433	1	145	1	0.0	10.31499958	12.41800022	32.35699844
         434	1	145	3	0.0	9.06200027	13.80799961	33.77500153
         435	1	145	4	0.0	10.59899998	13.53499985	31.30800056
         436	1	146	1	0.0	6.87900019	12.10400009	34.07799911
         437	1	146	3	0.0	6.4460001	10.77799988	36.08499908
         438	1	146	4	0.0	5.63899994	11.4090004	33.49100113
         439	1	147	1	0.0	8.71399975	11.61900043	37.38999939
         440	1	147	3	0.0	10.06200027	13.61600018	37.18799973
         441	1	147	4	0.0	9.59899998	10.4090004	37.22999954
         442	1	148	1	0.0	10.26900005	14.07299995	39.8730011
         443	1	148	3	0.0	12.50899982	14.72200012	39.65599823
         444	1	148	4	0.0	9.95699978	14.20600033	41.33300018
         445	1	149	1	0.0	13.56499958	12.27099991	39.30400085
         446	1	149	3	0.0	12.79500008	10.27799988	38.31600189
         447	1	149	4	0.0	14.37800026	11.77200031	40.49100113
         448	1	150	1	0.0	14.8380003	10.13399982	36.48199844
         449	1	150	3	0.0	17.13800049	10.71800041	36.72499847
         450	1	150	4	0.0	14.17199993	10.50899982	35.1230011
         451	1	151	1	0.0	18.07900047	8.42599964	35.4620018
         452	1	151	3	0.0	17.39999962	7.41699982	33.3769989
         453	1	151	4	0.0	18.46500015	7.13700008	36.25299835
         454	1	152	1	0.0	19.44499969	8.59300041	31.93099976
         455	1	152	3	0.0	21.78899956	8.55200005	32.53099823
         456	1	152	4	0.0	19.02300072	9.87800026	31.06200027
         457	1	153	1	0.0	22.58600044	7.42999983	30.22699928
         458	1	153	3	0.0	22.49900055	9.58399963	29.13100052
         459	1	153	4	0.0	22.69400024	6.36800003	29.10899925
         460	1	154	1	0.0	25.19000053	10.04100037	29.31100082
         461	1	154	3	0.0	24.88500023	11.56599998	27.47500038
         462	1	154	4	0.0	26.63299942	9.83399963	29.56200027
         463	1	155	1	0.0	24.69000053	9.59399986	25.56699944
         464	1	155	3	0.0	22.97800064	10.45800018	24.1420002
         465	1	155	4	0.0	24.87199974	8.25500011	24.8029995
         466	1	156	1	0.0	21.00499916	10.67000008	26.15399933
         467	1	156	3	0.0	19.74300003	12.22200012	27.49300003
         468	1	156	4	0.0	20.02599907	9.64799976	26.64800072
         469	1	157	1	0.0	21.63299942	13.97399998	27.94300079
         470	1	157	3	0.0	23.61300087	14.75	26.87700081
         471	1	157	4	0.0	21.84600067	13.6789999	29.4640007
         472	1	158	1	0.0	22.86499977	17.41600037	26.75699997
         473	1	158	3	0.0	21.71299934	18.8579998	28.27300072
         474	1	158	4	0.0	22.34700012	18.00499916	25.49399948
         475	1	159	1	0.0	24.06900024	20.22400093	29.02499962
         476	1	159	3	0.0	24.06500053	21.60300064	27.06699944
         477	1	159	4	0.0	25.52700043	20.34199905	29.50399971
         478	1	160	1	0.0	22.49600029	23.57699966	28.19099998
         479	1	160	3	0.0	23.38899994	24.62400055	30.18700027
         480	1	160	4	0.0	20.97900009	23.62199974	27.94499969
         481	1	161	1	0.0	23.00900078	27.20999908	29.06399918
         482	1	161	3	0.0	21.26499939	27.16300011	30.72500038
         483	1	161	4	0.0	22.4279995	28.28899956	28.17700005
         484	1	162	1	0.0	22.80599976	27.83300018	32.88899994
         485	1	162	3	0.0	21.15800095	29.02000046	34.13299942
         486	1	162	4	0.0	24.00099945	28.12400055	33.77000046
         487	1	163	1	0.0	20.6060009	30.84199905	32.28300095
         488	1	163	3	0.0	18.31999969	31.24200058	31.7140007
         489	1	163	4	0.0	21.12400055	32.13299942	31.67000008
         490	1	164	1	0.0	18.01399994	28.87299919	30.25200081
         491	1	164	3	0.0	16.77499962	28.36599922	32.18700027
         492	1	164	4	0.0	18.20400047	27.45599937	29.7670002
         493	1	165	1	0.0	14.34000015	29.19099998	31.28000069
         494	1	165	3	0.0	13.23200035	27.47599983	29.96999931
         495	1	165	4	0.0	13.47500038	30.29400063	30.70899963
         496	1	166	1	0.0	13.63099957	25.42700005	31.76600075
         497	1	166	3	0.0	11.87199974	24.24200058	30.70499992
         498	1	166	4	0.0	14.09300041	24.62899971	32.99700165
         499	1	167	1	0.0	9.85599995	25.78899956	31.6590004
         500	1	167	3	0.0	8.38700008	26.03300095	29.8010006
         501	1	167	4	0.0	8.99100018	26.57900047	32.63499832