ITEM: TIMESTEP
0
ITEM: NUMBER OF ATOMS
1122
ITEM: BOX BOUNDS ss ss ss
-1.7801007680000001e+01 3.4213518389999997e+01
-4.8140081700000001e+00 3.6997008729999997e+01
-1.2290008000000000e+01 5.0884009769999999e+01
ITEM: ATOMS id type xs ys zs
1 1 0.764037 0.463658 0.996185
2 3 0.751117 0.409079 0.999367
3 4 0.793009 0.466217 0.992212
4 1 0.741293 0.403124 0.954997
5 3 0.754616 0.357777 0.935717
6 4 0.719434 0.415513 0.941147
7 1 0.801968 0.381239 0.924811
8 3 0.810678 0.345627 0.952908
9 4 0.827269 0.398962 0.924589
10 1 0.811235 0.29222 0.928262
11 3 0.788568 0.246753 0.939136
12 5 0.805123 0.278818 0.90612
13 1 0.744927 0.273182 0.950992
14 3 0.721203 0.287221 0.91935
15 4 0.737006 0.287341 0.972473
16 1 0.680406 0.247806 0.929908
17 3 0.662065 0.285571 0.953794
18 4 0.667314 0.2159 0.937078
19 1 0.635438 0.320203 0.925381
20 3 0.603466 0.286838 0.910738
21 4 0.638264 0.348258 0.909124
22 1 0.564477 0.303437 0.936303
23 3 0.556191 0.359116 0.940434
24 4 0.551077 0.291454 0.956311
25 1 0.524546 0.365478 0.90618
26 3 0.492728 0.328789 0.895147
27 4 0.542675 0.383057 0.891379
28 1 0.462294 0.372677 0.874379
29 3 0.487922 0.384277 0.843068
30 4 0.44155 0.398412 0.876959
31 1 0.456373 0.347732 0.816902
32 3 0.412789 0.329985 0.821936
33 4 0.475963 0.322212 0.812961
34 1 0.400811 0.333262 0.77858
35 3 0.421402 0.29973 0.752667
36 4 0.393333 0.358829 0.762687
37 1 0.399619 0.242998 0.76742
38 3 0.355382 0.241061 0.759379
39 4 0.401811 0.217885 0.78583
40 1 0.360919 0.209227 0.722053
41 3 0.379856 0.156418 0.71683
42 4 0.364014 0.21767 0.698689
43 1 0.342058 0.12645 0.741856
44 3 0.337944 0.0804575 0.719948
45 4 0.325505 0.122217 0.761943
46 1 0.300782 0.104877 0.694083
47 3 0.290284 0.157279 0.682417
48 4 0.275116 0.0900482 0.698737
49 1 0.282191 0.134223 0.640817
50 3 0.240068 0.133219 0.655507
51 4 0.277307 0.114085 0.62206
52 1 0.228494 0.192748 0.634581
53 3 0.195599 0.203368 0.659955
54 4 0.208634 0.173543 0.621791
55 1 0.227167 0.210184 0.693861
56 3 0.254794 0.253809 0.688084
57 4 0.238837 0.185836 0.709247
58 1 0.239395 0.289278 0.723715
59 3 0.270213 0.252541 0.737851
60 4 0.221861 0.300471 0.740827
61 1 0.306895 0.301667 0.744009
62 3 0.282575 0.315898 0.774749
63 4 0.322814 0.331324 0.739086
64 1 0.312067 0.279209 0.802244
65 3 0.35642 0.288034 0.808576
66 4 0.312413 0.244218 0.808244
67 1 0.350229 0.339743 0.833903
68 3 0.340078 0.31982 0.867984
69 4 0.340982 0.374064 0.837971
70 1 0.387277 0.292985 0.874806
71 3 0.430591 0.308388 0.869329
72 4 0.37801 0.257827 0.874584
73 1 0.448106 0.280429 0.905167
74 3 0.454046 0.227667 0.893944
75 4 0.448875 0.276387 0.929021
76 1 0.502821 0.238669 0.878225
77 3 0.533428 0.266294 0.900196
78 4 0.505071 0.243166 0.853136
79 1 0.572821 0.221258 0.893041
80 3 0.587298 0.203894 0.858803
81 4 0.5803 0.191361 0.904391
82 1 0.624114 0.252852 0.856903
83 3 0.661835 0.26218 0.878668
84 4 0.621057 0.288226 0.849764
85 1 0.687443 0.209634 0.862095
86 3 0.703457 0.254502 0.842356
87 4 0.694729 0.179738 0.849938
88 1 0.750502 0.255124 0.861414
89 3 0.758019 0.219177 0.832241
90 4 0.76942 0.249886 0.879381
91 1 0.786627 0.262706 0.808909
92 3 0.825712 0.24142 0.823978
93 4 0.793048 0.296238 0.80158
94 1 0.834402 0.198991 0.791069
95 3 0.849782 0.244481 0.771678
96 4 0.826442 0.167325 0.780891
97 1 0.894366 0.218579 0.758619
98 3 0.8672 0.215398 0.728116
99 4 0.915994 0.19703 0.751733
100 1 0.880331 0.277583 0.714629
101 3 0.841169 0.287006 0.696204
102 4 0.888098 0.259262 0.694542
103 1 0.811043 0.293344 0.732342
104 3 0.829576 0.332401 0.754994
105 4 0.795816 0.267824 0.74336
106 1 0.786511 0.373371 0.753569
107 3 0.741428 0.362034 0.753538
108 4 0.78878 0.398221 0.734574
109 1 0.730969 0.384875 0.792699
110 3 0.738986 0.440626 0.798572
111 4 0.732257 0.371673 0.815209
112 1 0.690846 0.459257 0.781144
113 3 0.649915 0.446892 0.795359
114 4 0.683348 0.461912 0.757036
115 1 0.642667 0.506996 0.813594
116 3 0.638591 0.545933 0.785181
117 4 0.649819 0.530052 0.831719
118 1 0.589566 0.528832 0.77505
119 3 0.572263 0.564134 0.800883
120 4 0.568649 0.50513 0.770887
121 1 0.56886 0.615364 0.77315
122 3 0.525815 0.630958 0.767737
123 4 0.58972 0.641338 0.768971
124 1 0.522643 0.618474 0.726169
125 3 0.541022 0.582167 0.70176
126 4 0.5242 0.650953 0.715484
127 1 0.497361 0.556983 0.686073
128 3 0.455161 0.574681 0.681641
129 4 0.496227 0.522135 0.695698
130 1 0.454104 0.569946 0.637509
131 3 0.448125 0.512353 0.634296
132 5 0.43701 0.576156 0.656984
133 1 0.399292 0.516563 0.620683
134 3 0.387776 0.535601 0.585684
135 4 0.371666 0.520533 0.629705
136 1 0.415442 0.487479 0.564979
137 3 0.389218 0.439908 0.569744
138 4 0.443338 0.476525 0.559676
139 1 0.366398 0.43986 0.531769
140 3 0.364494 0.384157 0.535648
141 4 0.356824 0.445457 0.509783
142 1 0.415672 0.370261 0.531437
143 3 0.409251 0.325297 0.554975
144 4 0.444165 0.371649 0.526751
145 1 0.404291 0.358877 0.591351
146 3 0.371646 0.322427 0.601038
147 4 0.406637 0.382938 0.60938
148 1 0.331638 0.350769 0.579811
149 3 0.314412 0.299825 0.569016
150 4 0.314989 0.376887 0.5712
151 1 0.349095 0.289565 0.536613
152 3 0.345788 0.233623 0.544496
153 4 0.37032 0.292531 0.519359
154 1 0.376126 0.23623 0.580904
155 3 0.344135 0.198034 0.593029
156 4 0.396812 0.246538 0.597477
157 1 0.313086 0.242185 0.611533
158 3 0.283998 0.199995 0.601608
159 4 0.300147 0.273469 0.619907
160 1 0.274231 0.220899 0.563507
161 3 0.268137 0.173112 0.544354
162 4 0.265522 0.24496 0.546918
163 1 0.317104 0.151659 0.544243
164 3 0.333503 0.135586 0.510542
165 5 0.344771 0.158361 0.551703
166 1 0.334657 0.195451 0.492307
167 3 0.374934 0.182081 0.47518
168 4 0.327601 0.230107 0.488255
169 1 0.405041 0.197651 0.509751
170 3 0.406002 0.178398 0.545256
171 4 0.417095 0.229509 0.515465
172 1 0.422536 0.118247 0.535046
173 3 0.467946 0.122576 0.536471
174 4 0.420959 0.0872021 0.521654
175 1 0.47033 0.117266 0.58027
176 3 0.44005 0.0960514 0.605027
177 4 0.479443 0.151994 0.585573
178 1 0.471465 0.0588124 0.628534
179 3 0.468369 0.100189 0.654921
180 4 0.496131 0.0426445 0.635182
181 1 0.422401 0.0773961 0.673141
182 3 0.437378 0.030088 0.689572
183 4 0.394409 0.0772526 0.667901
184 1 0.420037 0.0997825 0.719916
185 3 0.465678 0.107962 0.712951
186 4 0.414288 0.0965776 0.743692
187 1 0.460814 0.17206 0.70404
188 3 0.435628 0.214609 0.719093
189 4 0.46091 0.173926 0.678618
190 1 0.475598 0.257181 0.721325
191 3 0.502725 0.271244 0.690917
192 4 0.4949 0.267274 0.738547
193 1 0.46512 0.301858 0.669342
194 3 0.48846 0.34424 0.688574
195 4 0.438243 0.303485 0.660034
196 1 0.485922 0.388582 0.656219
197 3 0.529391 0.370501 0.653212
198 5 0.474467 0.395442 0.634204
199 1 0.541676 0.414556 0.621711
200 3 0.570379 0.453421 0.608272
201 4 0.541945 0.393916 0.600959
202 1 0.537062 0.505656 0.609871
203 3 0.520316 0.530913 0.640643
204 4 0.514568 0.517161 0.597255
205 1 0.566265 0.54433 0.65948
206 3 0.609311 0.561216 0.649159
207 4 0.564669 0.517065 0.675737
208 1 0.619096 0.589988 0.688511
209 3 0.598852 0.58896 0.723177
210 4 0.618462 0.625051 0.681419
211 1 0.645743 0.582909 0.744103
212 3 0.688308 0.604482 0.736917
213 5 0.638821 0.618646 0.74563
214 1 0.706457 0.589725 0.77763
215 3 0.705995 0.53926 0.795612
216 4 0.7024 0.613427 0.795723
217 1 0.756789 0.524862 0.786621
218 3 0.768459 0.546268 0.820559
219 4 0.784089 0.523881 0.776949
220 1 0.751483 0.49377 0.843971
221 3 0.791683 0.486116 0.859657
222 4 0.727643 0.475712 0.852154
223 1 0.806621 0.433116 0.838937
224 3 0.798527 0.412093 0.805015
225 4 0.805064 0.407716 0.855827
226 1 0.849513 0.392791 0.797701
227 3 0.871045 0.358973 0.822965
228 4 0.870199 0.412595 0.785513
229 1 0.871968 0.30657 0.795897
230 3 0.908496 0.332257 0.779593
231 5 0.878663 0.318163 0.818369
232 1 0.943371 0.284112 0.789929
233 3 0.935623 0.273086 0.753126
234 4 0.955522 0.25278 0.797622
235 1 0.976227 0.306068 0.738041
236 3 0.972325 0.341872 0.709042
237 5 0.999231 0.327463 0.743957
238 1 0.930413 0.375882 0.723051
239 3 0.957694 0.417043 0.737313
240 4 0.905151 0.384468 0.734986
241 1 0.967691 0.446151 0.70051
242 3 0.962289 0.499821 0.691439
243 4 0.990781 0.440195 0.686801
244 1 0.919147 0.494487 0.670038
245 3 0.889406 0.536462 0.67474
246 4 0.907862 0.481452 0.64946
247 1 0.875486 0.523235 0.715199
248 3 0.89998 0.496664 0.742932
249 4 0.846398 0.513429 0.714139
250 1 0.884791 0.541915 0.773008
251 3 0.842649 0.564684 0.775414
252 4 0.904305 0.56808 0.777567
253 1 0.836613 0.549975 0.818929
254 3 0.849705 0.604554 0.817567
255 4 0.84438 0.538327 0.840631
256 1 0.801199 0.628256 0.816538
257 3 0.787953 0.663175 0.790119
258 5 0.772307 0.62022 0.816789
259 1 0.80343 0.631078 0.754836
260 3 0.760922 0.608644 0.754234
261 4 0.81831 0.611442 0.739513
262 1 0.741562 0.651312 0.725726
263 3 0.764575 0.630815 0.695428
264 4 0.732642 0.684078 0.718017
265 1 0.729181 0.583865 0.685788
266 3 0.683079 0.582454 0.683699
267 4 0.739947 0.551171 0.694526
268 1 0.681579 0.553012 0.644933
269 3 0.707322 0.511133 0.629848
270 4 0.676561 0.573366 0.624592
271 1 0.674043 0.460812 0.641356
272 3 0.651453 0.47124 0.608747
273 4 0.65424 0.444716 0.654684
274 1 0.679022 0.430772 0.584006
275 3 0.675984 0.374806 0.583579
276 4 0.705611 0.431131 0.574287
277 1 0.630497 0.368492 0.565011
278 3 0.642225 0.323049 0.543404
279 4 0.601601 0.372964 0.561006
280 1 0.674158 0.355505 0.516019
281 3 0.708033 0.388295 0.527511
282 4 0.67137 0.374184 0.495362
283 1 0.742158 0.340174 0.539114
284 3 0.756077 0.350984 0.503625
285 4 0.749887 0.307359 0.546886
286 1 0.804199 0.366435 0.513835
287 3 0.841515 0.361412 0.535046
288 4 0.810562 0.401473 0.511856
289 1 0.852781 0.300423 0.527923
290 3 0.898653 0.305757 0.528904
291 4 0.85082 0.263902 0.524108
292 1 0.903363 0.338308 0.4918
293 3 0.937373 0.318864 0.469924
294 5 0.889926 0.343842 0.470389
295 1 0.930452 0.255411 0.476968
296 3 0.932951 0.218962 0.448713
297 4 0.936758 0.231446 0.494586
298 1 0.881965 0.2137 0.439896
299 3 0.887502 0.256799 0.414918
300 4 0.854127 0.206309 0.446275
301 1 0.877082 0.216426 0.379618
302 3 0.867892 0.266987 0.362238
303 4 0.86647 0.186052 0.368775
304 1 0.821771 0.277678 0.382768
305 3 0.833325 0.331516 0.383037
306 4 0.795067 0.271197 0.392218
307 1 0.854088 0.332783 0.422611
308 3 0.881081 0.375045 0.410026
309 4 0.862413 0.324843 0.445151
310 1 0.915341 0.334721 0.387485
311 3 0.922954 0.355433 0.352693
312 4 0.934874 0.307886 0.385697
313 1 0.874929 0.35163 0.337259
314 3 0.854934 0.396475 0.353642
315 4 0.851243 0.33429 0.330817
316 1 0.87018 0.442085 0.325688
317 3 0.835421 0.478008 0.334394
318 4 0.883907 0.455191 0.306503
319 1 0.797912 0.439621 0.316364
320 3 0.759942 0.433259 0.337085
321 4 0.788645 0.435699 0.293159
322 1 0.767863 0.373538 0.348925
323 3 0.787415 0.396092 0.380536
324 5 0.747116 0.398635 0.343773
325 1 0.744504 0.387051 0.405483
326 3 0.730758 0.363015 0.437015
327 4 0.728643 0.417163 0.408871
328 1 0.70663 0.310038 0.420141
329 3 0.730181 0.260458 0.419128
330 4 0.687116 0.295138 0.405262
331 1 0.759384 0.274736 0.455551
332 3 0.729585 0.233647 0.467376
333 4 0.767286 0.290785 0.47624
334 1 0.761614 0.185095 0.457799
335 3 0.745676 0.149267 0.483648
336 4 0.782781 0.165626 0.446814
337 1 0.757308 0.184497 0.518663
338 3 0.723144 0.195092 0.543356
339 4 0.776187 0.200761 0.533226
340 1 0.688596 0.217598 0.515386
341 3 0.676196 0.162039 0.517317
342 4 0.674562 0.232666 0.496122
343 1 0.635284 0.172969 0.544195
344 3 0.589509 0.167683 0.542438
345 4 0.632227 0.177824 0.568383
346 1 0.583818 0.199397 0.504385
347 3 0.554595 0.168018 0.484661
348 4 0.583991 0.232666 0.493747
349 1 0.587048 0.136854 0.460031
350 3 0.565015 0.0879196 0.459746
351 4 0.606735 0.132429 0.442492
352 1 0.587759 0.0605584 0.495378
353 3 0.6061 0.0615629 0.530202
354 4 0.610483 0.0372631 0.491183
355 1 0.567553 0.0948795 0.55029
356 3 0.553557 0.0460646 0.566736
357 4 0.543098 0.114348 0.553155
358 1 0.592988 0.0507045 0.59868
359 3 0.576935 0.0514699 0.634343
360 4 0.621807 0.0446057 0.602495
361 1 0.573417 0.115735 0.637462
362 3 0.585683 0.110354 0.672967
363 5 0.586956 0.146245 0.629573
364 1 0.63763 0.10813 0.667854
365 3 0.657682 0.152855 0.649492
366 4 0.650914 0.0744543 0.66779
367 1 0.699247 0.15362 0.676196
368 3 0.709571 0.109421 0.653212
369 4 0.713532 0.155629 0.696853
370 1 0.754116 0.135204 0.637826
371 3 0.771612 0.0842603 0.633362
372 4 0.777725 0.15606 0.63208
373 1 0.77438 0.0663942 0.673948
374 3 0.757 0.0169574 0.686643
375 4 0.78928 0.0718473 0.695254
376 1 0.710686 0.0229846 0.6714
377 3 0.68056 0.00492713 0.696188
378 5 0.690203 0.045724 0.662272
379 1 0.687597 0.0443904 0.727435
380 3 0.675081 0.097343 0.717874
381 4 0.705553 0.0392961 0.747064
382 1 0.641052 0.104112 0.752366
383 3 0.663161 0.106312 0.786621
384 4 0.613713 0.0932053 0.754361
385 1 0.650069 0.167588 0.793475
386 3 0.628094 0.190644 0.822506
387 4 0.662642 0.19935 0.786906
388 1 0.579896 0.173112 0.809969
389 3 0.565304 0.118892 0.81027
390 4 0.561363 0.186697 0.793333
391 1 0.543022 0.122336 0.850223
392 3 0.521624 0.163737 0.86792
393 4 0.557114 0.107436 0.868712
394 1 0.47356 0.138911 0.866084
395 3 0.455411 0.0859584 0.863409
396 4 0.458372 0.15594 0.849147
397 1 0.435955 0.0841646 0.904343
398 3 0.440377 0.0270744 0.900402
399 4 0.409501 0.0796682 0.893247
400 1 0.493362 0.0270266 0.903552
401 3 0.517625 0.000956877 0.876848
402 5 0.517155 0.0488854 0.902458
403 1 0.485538 0.0133938 0.843591
404 3 0.503782 0.0647439 0.836024
405 4 0.458949 0.0144461 0.83327
406 1 0.536966 0.0437446 0.80378
407 3 0.499687 0.0490064 0.781714
408 4 0.55448 0.0201623 0.793143
409 1 0.510146 0.108536 0.766344
410 3 0.549962 0.12236 0.750229
411 4 0.499957 0.139054 0.776459
412 1 0.533563 0.121284 0.709738
413 3 0.524219 0.177346 0.712018
414 4 0.520066 0.109541 0.689825
415 1 0.568149 0.194614 0.687973
416 3 0.547117 0.178924 0.655539
417 4 0.597199 0.196551 0.686168
418 1 0.543637 0.237904 0.637161
419 3 0.572609 0.282773 0.632903
420 4 0.51947 0.257827 0.639187
421 1 0.593719 0.253665 0.59553
422 3 0.629555 0.290115 0.59906
423 4 0.58153 0.280166 0.58141
424 1 0.646916 0.264022 0.636638
425 3 0.661335 0.312358 0.652357
426 5 0.635998 0.247782 0.656587
427 1 0.614559 0.3407 0.65796
428 3 0.605792 0.341226 0.694067
429 4 0.604081 0.36445 0.640912
430 1 0.553211 0.325632 0.691155
431 3 0.56094 0.357705 0.72275
432 4 0.55969 0.297458 0.706588
433 1 0.540541 0.41214 0.706731
434 3 0.516452 0.445385 0.729177
435 4 0.546001 0.438856 0.690126
436 1 0.474483 0.40463 0.733973
437 3 0.466158 0.372916 0.765742
438 4 0.450643 0.388008 0.724681
439 1 0.509762 0.393031 0.786399
440 3 0.535677 0.440793 0.783202
441 4 0.526776 0.364091 0.783867
442 1 0.539657 0.451723 0.825704
443 3 0.582722 0.467245 0.822269
444 4 0.533659 0.454904 0.848814
445 1 0.603024 0.408625 0.816697
446 3 0.58822 0.360958 0.801057
447 4 0.618654 0.39669 0.835486
448 1 0.627498 0.357514 0.772026
449 3 0.671716 0.371481 0.775873
450 4 0.614694 0.366483 0.750514
451 1 0.689807 0.316663 0.755881
452 3 0.676753 0.292531 0.722876
453 4 0.697228 0.285834 0.768401
454 1 0.716069 0.320657 0.699987
455 3 0.761134 0.319677 0.709485
456 4 0.707956 0.351391 0.686232
457 1 0.776456 0.292842 0.673014
458 3 0.774784 0.344359 0.655665
459 4 0.778533 0.267442 0.655317
460 1 0.826519 0.355289 0.658515
461 3 0.820656 0.391763 0.629452
462 4 0.854262 0.350338 0.662488
463 1 0.816907 0.344598 0.59925
464 3 0.783993 0.365263 0.576693
465 4 0.820406 0.312573 0.587156
466 1 0.746061 0.370333 0.608541
467 3 0.721799 0.407453 0.629737
468 4 0.727239 0.34589 0.616361
469 1 0.758135 0.449355 0.63686
470 3 0.796201 0.467915 0.619986
471 4 0.76223 0.4423 0.660936
472 1 0.78182 0.531678 0.618087
473 3 0.759673 0.566167 0.642084
474 4 0.771861 0.545765 0.598094
475 1 0.804968 0.598838 0.653987
476 3 0.804891 0.631819 0.622994
477 4 0.832998 0.60166 0.66157
478 1 0.774726 0.679032 0.640786
479 3 0.791894 0.704073 0.672381
480 4 0.745561 0.680108 0.636892
481 1 0.784589 0.765923 0.654605
482 3 0.75106 0.764799 0.680897
483 4 0.773419 0.791729 0.640564
484 1 0.780686 0.780823 0.715152
485 3 0.749002 0.809213 0.734843
486 4 0.80366 0.787783 0.729097
487 1 0.73839 0.85279 0.705559
488 3 0.694441 0.862357 0.696552
489 4 0.748349 0.883667 0.695856
490 1 0.688558 0.805697 0.67341
491 3 0.664738 0.793571 0.70404
492 4 0.692211 0.771806 0.665733
493 1 0.617924 0.813303 0.689682
494 3 0.596622 0.772285 0.668946
495 4 0.601294 0.839683 0.680644
496 1 0.604293 0.723278 0.697375
497 3 0.570475 0.694937 0.680581
498 4 0.613175 0.704193 0.716861
499 1 0.531717 0.731936 0.695682
500 3 0.503475 0.737772 0.666271
501 4 0.515087 0.750831 0.711131
502 1 0.539984 0.761689 0.639488
503 3 0.548443 0.726603 0.610362
504 4 0.546213 0.796561 0.633805
505 1 0.598794 0.719547 0.616155
506 3 0.605331 0.665877 0.603555
507 4 0.628305 0.725455 0.620603
508 1 0.571764 0.636483 0.62999
509 3 0.566361 0.602401 0.600073
510 4 0.552134 0.627729 0.646991
511 1 0.537523 0.642989 0.575601
512 3 0.554038 0.623592 0.542739
513 4 0.520105 0.670135 0.567987
514 1 0.604254 0.638755 0.549641
515 3 0.62273 0.589701 0.537341
516 4 0.626517 0.662242 0.554595
517 1 0.607081 0.554232 0.573021
518 3 0.59666 0.50635 0.554199
519 5 0.629997 0.554414 0.557586
520 1 0.558498 0.530458 0.530313
521 3 0.551981 0.554136 0.496027
522 4 0.539426 0.505322 0.539811
523 1 0.502994 0.57779 0.505699
524 3 0.510031 0.602569 0.471998
525 5 0.510172 0.552485 0.489001
526 1 0.537158 0.653321 0.488381
527 3 0.556768 0.648657 0.454301
528 4 0.548289 0.679749 0.502216
529 1 0.599736 0.616991 0.467613
530 3 0.601678 0.595752 0.432203
531 4 0.619846 0.601421 0.481306
532 1 0.562189 0.553252 0.438946
533 3 0.557114 0.566956 0.402966
534 4 0.541772 0.5301 0.447937
535 1 0.518759 0.610844 0.409266
536 3 0.536389 0.635598 0.377924
537 5 0.525735 0.584189 0.393454
538 1 0.570379 0.674775 0.399373
539 3 0.592527 0.665877 0.366322
540 4 0.584298 0.691014 0.416722
541 1 0.620231 0.614455 0.380441
542 3 0.620596 0.595991 0.345221
543 5 0.625085 0.643956 0.366404
544 1 0.57184 0.570257 0.344414
545 3 0.575589 0.583674 0.307405
546 4 0.544213 0.55935 0.349527
547 1 0.566342 0.648753 0.31236
548 3 0.600659 0.656645 0.286827
549 4 0.551558 0.678266 0.319894
550 1 0.634804 0.682189 0.312518
551 3 0.673351 0.665997 0.296404
552 4 0.644455 0.708043 0.328315
553 1 0.675984 0.608213 0.316174
554 3 0.680483 0.570783 0.287777
555 4 0.685289 0.59824 0.338114
556 1 0.635707 0.538208 0.295169
557 3 0.635054 0.536533 0.257464
558 4 0.615232 0.519193 0.307326
559 1 0.595545 0.57437 0.250784
560 3 0.612637 0.601468 0.221452
561 4 0.56863 0.587238 0.251512
562 1 0.641975 0.646433 0.243375
563 3 0.630343 0.675301 0.211432
564 4 0.663449 0.634522 0.229588
565 1 0.587509 0.704958 0.230395
566 3 0.620596 0.746215 0.231029
567 4 0.567861 0.716008 0.247586
568 1 0.610791 0.766664 0.19049
569 3 0.572129 0.800339 0.193102
570 4 0.615098 0.756308 0.167189
571 1 0.600813 0.856784 0.189477
572 3 0.587451 0.847887 0.153608
573 4 0.623538 0.879218 0.186596
574 1 0.538927 0.876372 0.158451
575 3 0.501687 0.852981 0.142575
576 5 0.520552 0.890711 0.175044
577 1 0.506513 0.793212 0.161696
578 3 0.475002 0.814379 0.184506
579 4 0.521701 0.763531 0.169421
580 1 0.437513 0.767645 0.172919
581 3 0.447452 0.711607 0.177019
582 4 0.418806 0.763627 0.155127
583 1 0.432379 0.709359 0.219916
584 3 0.389584 0.722872 0.230744
585 4 0.44899 0.716247 0.238753
586 1 0.374626 0.661764 0.240779
587 3 0.399177 0.622994 0.260914
588 4 0.3589 0.64031 0.225742
589 1 0.373703 0.632417 0.298968
590 3 0.330408 0.633637 0.311125
591 4 0.383931 0.656956 0.315541
592 1 0.32539 0.566573 0.315779
593 3 0.346788 0.543541 0.345759
594 4 0.324179 0.535242 0.304223
595 1 0.31174 0.573438 0.374094
596 3 0.346211 0.60905 0.382183
597 5 0.285104 0.589491 0.374728
598 1 0.317027 0.649351 0.407494
599 3 0.307895 0.667241 0.442983
600 4 0.29909 0.677453 0.400845
601 1 0.334637 0.618665 0.461582
602 3 0.37255 0.648944 0.453763
603 5 0.322093 0.651514 0.465443
604 1 0.397697 0.63842 0.489948
605 3 0.433552 0.652795 0.468136
606 5 0.390903 0.669785 0.478457
607 1 0.440666 0.595991 0.450138
608 3 0.451182 0.624501 0.418242
609 4 0.443818 0.559566 0.44865
610 1 0.402715 0.626892 0.400988
611 3 0.416691 0.676592 0.38576
612 5 0.430237 0.621441 0.392758
613 1 0.40679 0.714166 0.421059
614 3 0.44453 0.743632 0.411641
615 4 0.394698 0.727655 0.441843
616 1 0.47927 0.701299 0.426884
617 3 0.507608 0.71175 0.39692
618 4 0.491882 0.677286 0.442144
619 1 0.482192 0.672359 0.369361
620 3 0.49244 0.717347 0.346804
621 4 0.465851 0.645859 0.359325
622 1 0.448452 0.751381 0.353167
623 3 0.478578 0.79448 0.346677
624 4 0.421959 0.762168 0.360243
625 1 0.498111 0.796441 0.385475
626 3 0.534389 0.812131 0.364359
627 4 0.503936 0.790486 0.408855
628 1 0.552673 0.753199 0.35627
629 3 0.56613 0.774724 0.322854
630 5 0.562855 0.7869 0.361414
631 1 0.522316 0.769104 0.301849
632 3 0.535658 0.816292 0.283534
633 4 0.496323 0.758987 0.293523
634 1 0.515164 0.858865 0.314655
635 3 0.553153 0.890842 0.30579
636 4 0.499457 0.869914 0.333397
637 1 0.584837 0.860969 0.331782
638 3 0.6185 0.86824 0.306281
639 4 0.595045 0.842027 0.350207
640 1 0.606542 0.819617 0.279656
641 3 0.607215 0.83942 0.243771
642 4 0.601467 0.784985 0.273863
643 1 0.57186 0.886465 0.249581
644 3 0.548558 0.889646 0.218254
645 5 0.551745 0.900176 0.264996
646 1 0.513664 0.840879 0.227261
647 3 0.492036 0.888498 0.236442
648 4 0.496996 0.815288 0.238041
649 1 0.468562 0.89828 0.197534
650 3 0.425477 0.911841 0.206826
651 4 0.468696 0.903685 0.173758
652 1 0.406848 0.853603 0.210007
653 3 0.420287 0.801488 0.218302
654 4 0.395236 0.848437 0.189002
655 1 0.391987 0.796848 0.256102
656 3 0.351921 0.807682 0.273546
657 4 0.407002 0.80419 0.276395
658 1 0.327101 0.754395 0.256007
659 3 0.33581 0.703619 0.272897
660 4 0.318507 0.74026 0.234923
661 1 0.307568 0.716725 0.308956
662 3 0.264734 0.710172 0.296356
663 5 0.32428 0.691249 0.297974
664 1 0.2611 0.645954 0.306044
665 3 0.26979 0.612925 0.336278
666 4 0.266772 0.620124 0.289455
667 1 0.2224 0.617182 0.355051
668 3 0.180123 0.633015 0.34492
669 4 0.229878 0.635742 0.374505
670 1 0.154861 0.586592 0.366084
671 3 0.12087 0.607424 0.388562
672 4 0.147113 0.551458 0.367303
673 1 0.152496 0.636842 0.416817
674 3 0.180238 0.683672 0.414601
675 4 0.166992 0.62694 0.436714
676 1 0.142172 0.720241 0.397284
677 3 0.159302 0.768171 0.411862
678 4 0.116948 0.732343 0.387454
679 1 0.15661 0.752338 0.45267
680 3 0.194696 0.779292 0.461598
681 4 0.147824 0.739494 0.474087
682 1 0.227975 0.736002 0.440339
683 3 0.25987 0.772476 0.425191
684 4 0.238626 0.703332 0.432789
685 1 0.227917 0.795795 0.394814
686 3 0.256159 0.839396 0.391728
687 4 0.205808 0.80065 0.379001
688 1 0.236761 0.875152 0.424621
689 3 0.28071 0.891392 0.424178
690 4 0.221111 0.888402 0.443062
691 1 0.297359 0.844084 0.450296
692 3 0.336733 0.847384 0.431
693 4 0.299282 0.816747 0.465524
694 1 0.320795 0.811007 0.397015
695 3 0.350633 0.8465 0.378827
696 4 0.306376 0.789314 0.381787
697 1 0.314355 0.892373 0.370326
698 3 0.352113 0.926072 0.374236
699 4 0.289323 0.910191 0.368047
700 1 0.348326 0.930592 0.417609
701 3 0.392698 0.940063 0.41487
702 4 0.339963 0.927029 0.440482
703 1 0.408886 0.881036 0.411878
704 3 0.44055 0.872426 0.384414
705 4 0.415269 0.848915 0.424257
706 1 0.412097 0.886298 0.350999
707 3 0.399427 0.880892 0.314956
708 5 0.40172 0.920549 0.34828
709 1 0.357362 0.845352 0.320686
710 3 0.336175 0.896247 0.31828
711 4 0.335599 0.824735 0.329503
712 1 0.335406 0.895291 0.274369
713 3 0.292418 0.909115 0.269098
714 4 0.349076 0.89651 0.252778
715 1 0.271174 0.850207 0.270713
716 3 0.286132 0.8001 0.28298
717 4 0.260793 0.849848 0.248235
718 1 0.23876 0.778862 0.297401
719 3 0.198349 0.780775 0.280875
720 4 0.23332 0.78563 0.32086
721 1 0.193638 0.715505 0.273958
722 3 0.200002 0.672478 0.298952
723 4 0.199579 0.700438 0.252018
724 1 0.147901 0.659659 0.30264
725 3 0.118006 0.643539 0.27524
726 4 0.126388 0.671546 0.316998
727 1 0.137596 0.582694 0.269763
728 3 0.0974345 0.569515 0.254456
729 4 0.151554 0.552988 0.276031
730 1 0.0682888 0.578723 0.29023
731 3 0.0277616 0.597187 0.276791
732 4 0.0603294 0.577647 0.313309
733 1 0.0475061 0.653632 0.261231
734 3 0.0265889 0.662672 0.228132
735 4 0.0615791 0.685442 0.262846
736 1 0.0576187 0.617756 0.207142
737 3 0.0444877 0.563584 0.21254
738 4 0.0851687 0.61479 0.199528
739 1 0.0233013 0.560546 0.173268
740 3 0.0367591 0.5174 0.151676
741 4 0.00076917 0.568391 0.159211
742 1 0.0837844 0.536438 0.142875
743 3 0.110008 0.543135 0.173283
744 4 0.0913592 0.555524 0.123674
745 1 0.142383 0.492693 0.166493
746 3 0.169357 0.535553 0.153465
747 4 0.151381 0.462247 0.156251
748 1 0.189947 0.548755 0.19163
749 3 0.221611 0.576595 0.171764
750 4 0.196195 0.547942 0.215848
751 1 0.2472 0.526249 0.15614
752 3 0.254967 0.560092 0.127442
753 4 0.259928 0.494391 0.149619
754 1 0.205943 0.558513 0.110077
755 3 0.213633 0.613977 0.0999463
756 4 0.179719 0.547942 0.104331
757 1 0.192658 0.636914 0.138237
758 3 0.225014 0.675277 0.130528
759 4 0.179508 0.638444 0.160272
760 1 0.263119 0.645285 0.152405
761 3 0.291284 0.669106 0.127679
762 4 0.278057 0.624668 0.168139
763 1 0.284844 0.626127 0.0965746
764 3 0.289016 0.671928 0.0747935
765 4 0.28121 0.594102 0.0846552
766 1 0.23753 0.688407 0.0735114
767 3 0.255467 0.740594 0.0720392
768 4 0.208788 0.686326 0.0742712
769 1 0.257986 0.751357 0.115111
770 3 0.292092 0.788022 0.110378
771 4 0.257813 0.748822 0.139282
772 1 0.329716 0.743752 0.104046
773 3 0.361265 0.738777 0.076424
774 4 0.344173 0.720408 0.117992
775 1 0.320045 0.735428 0.0448603
776 3 0.355785 0.713281 0.0254061
777 4 0.328428 0.767621 0.0341281
778 1 0.337521 0.650188 0.0378955
779 3 0.367417 0.612399 0.0482161
780 5 0.313611 0.634196 0.0476257
781 1 0.36907 0.626534 0.0909869
782 3 0.396409 0.671594 0.0967013
783 5 0.346653 0.631485 0.10657
784 1 0.405483 0.659731 0.137588
785 3 0.439474 0.623185 0.126872
786 4 0.397255 0.657793 0.161522
787 1 0.479347 0.658224 0.139979
788 3 0.50013 0.61247 0.154557
789 4 0.497361 0.686207 0.142606
790 1 0.481 0.622013 0.195824
791 3 0.441242 0.635192 0.212682
792 4 0.498803 0.640238 0.210862
793 1 0.429534 0.576642 0.22791
794 3 0.459141 0.540982 0.245038
795 4 0.409078 0.558059 0.216529
796 1 0.434475 0.544019 0.284864
797 3 0.390929 0.542919 0.296214
798 4 0.443357 0.568463 0.300662
799 1 0.392256 0.482337 0.311346
800 3 0.419979 0.467078 0.340536
801 4 0.388257 0.448112 0.303416
802 1 0.391218 0.502093 0.370295
803 3 0.361342 0.506661 0.400244
804 4 0.399139 0.537634 0.37411
805 1 0.333407 0.45335 0.391015
806 3 0.339021 0.413025 0.417941
807 4 0.309606 0.451819 0.376595
808 1 0.351806 0.365598 0.386884
809 3 0.327793 0.316974 0.385412
810 5 0.366327 0.365594 0.36564
811 1 0.298225 0.330463 0.351632
812 3 0.320891 0.337375 0.318929
813 4 0.273539 0.348545 0.348498
814 1 0.309664 0.275263 0.304445
815 3 0.310317 0.299275 0.269415
816 4 0.302339 0.239913 0.303764
817 1 0.260946 0.317787 0.269098
818 3 0.277096 0.360455 0.245877
819 4 0.231974 0.319007 0.27429
820 1 0.287708 0.402167 0.27782
821 3 0.324756 0.423094 0.260455
822 4 0.285651 0.421779 0.298857
823 1 0.356458 0.372486 0.267373
824 3 0.370781 0.386238 0.232437
825 4 0.369781 0.342996 0.276601
826 1 0.335003 0.346894 0.211638
827 3 0.332849 0.38808 0.186137
828 4 0.316181 0.320083 0.206003
829 1 0.296129 0.425175 0.205559
830 3 0.320411 0.4677 0.18916
831 4 0.274193 0.436488 0.219774
832 1 0.354036 0.475664 0.222243
833 3 0.380586 0.492502 0.193007
834 4 0.368628 0.471981 0.24279
835 1 0.395351 0.43314 0.179995
836 3 0.396659 0.461218 0.146896
837 4 0.400581 0.397455 0.177937
838 1 0.346077 0.443663 0.136924
839 3 0.342558 0.489177 0.114446
840 4 0.319238 0.431059 0.137636
841 1 0.337041 0.533376 0.143873
842 3 0.361784 0.579034 0.134312
843 4 0.321622 0.547918 0.162424
844 1 0.408251 0.553849 0.133425
845 3 0.402042 0.525914 0.0999938
846 4 0.430688 0.544498 0.14783
847 1 0.428015 0.572266 0.0764081
848 3 0.460333 0.531846 0.0777853
849 4 0.443665 0.602616 0.0707096
850 1 0.437513 0.493435 0.0467915
851 3 0.475002 0.462055 0.0397317
852 4 0.418402 0.478726 0.0312155
853 1 0.501668 0.511181 0.0205466
854 3 0.545098 0.510846 0.0318012
855 4 0.504398 0.532061 0.000633298
856 1 0.537869 0.551769 0.0649161
857 3 0.544771 0.569156 0.100136
858 4 0.5505 0.582407 0.0561783
859 1 0.495996 0.552151 0.115047
860 3 0.519816 0.504963 0.123991
861 5 0.516044 0.578658 0.118793
862 1 0.523027 0.522111 0.167759
863 3 0.491171 0.543852 0.191503
864 4 0.546597 0.53981 0.176433
865 1 0.479155 0.486977 0.211147
866 3 0.507935 0.448279 0.225473
867 4 0.457488 0.467078 0.203454
868 1 0.502937 0.470355 0.26742
869 3 0.46464 0.474253 0.28936
870 4 0.519855 0.497477 0.277994
871 1 0.469138 0.413886 0.306645
872 3 0.504302 0.413958 0.332146
873 4 0.466793 0.377508 0.304287
874 1 0.475406 0.443185 0.364011
875 3 0.466754 0.41525 0.396587
876 4 0.473483 0.479706 0.368965
877 1 0.415557 0.403411 0.388847
878 3 0.431572 0.352276 0.378573
879 5 0.432224 0.413867 0.407768
880 1 0.42417 0.322571 0.417973
881 3 0.380125 0.307718 0.421154
882 4 0.429073 0.319318 0.441748
883 1 0.382047 0.259525 0.389496
884 3 0.389314 0.226256 0.419809
885 4 0.393044 0.246706 0.368838
886 1 0.343885 0.193825 0.420489
887 3 0.366513 0.156323 0.398281
888 4 0.31622 0.186123 0.416057
889 1 0.38472 0.122145 0.43377
890 3 0.353401 0.0888763 0.416421
891 4 0.385585 0.106192 0.455251
892 1 0.39316 0.0599126 0.391648
893 3 0.364668 0.0394156 0.365388
894 4 0.389026 0.0302315 0.405452
895 1 0.344269 0.0937315 0.351347
896 3 0.373973 0.1248 0.331149
897 4 0.323448 0.11552 0.35923
898 1 0.358669 0.103633 0.292779
899 3 0.319007 0.123269 0.28173
900 4 0.363226 0.0743586 0.279735
901 1 0.339328 0.168401 0.255801
902 3 0.357093 0.133721 0.228749
903 4 0.349364 0.203344 0.256055
904 1 0.322583 0.155796 0.197597
905 3 0.313797 0.210017 0.187783
906 4 0.296783 0.139987 0.195998
907 1 0.344385 0.211499 0.153465
908 3 0.362207 0.173663 0.128803
909 4 0.363591 0.235488 0.162361
910 1 0.357093 0.214991 0.0954191