LAMMPS protain data file

         108  atoms
         132  bonds
           0  angles
           0  dihedrals
           0  impropers

           5  atom types
           5  bond types
           0  angle types
           0  dihedral types
           0  improper types

-200.0	200.0	xlo xhi
-200.0	200.0	ylo yhi
-200.0	200.0	zlo zhi

Masses

           1	27.0
           2	14.0
           3	28.0
           4	60.0
           5	60.0

Atoms

           1	1	1	1	0.0	-6.44399977	-0.94199997	15.95199966
           2	1	1	3	0.0	-8.34500027	-0.123	14.73799992
           3	1	1	4	0.0	-6.92600012	-2.36100006	16.24699974
           4	1	2	1	0.0	-6.93599987	0.245	12.36299992
           5	1	2	3	0.0	-5.04199982	-0.58200002	11.10999966
           6	1	2	4	0.0	-6.89799976	1.77900004	12.28600025
           7	1	3	1	0.0	-6.64900017	-1.24699998	8.86600018
           8	1	3	3	0.0	-8.43099976	-0.093	7.73099995
           9	1	3	4	0.0	-7.08699989	-2.72199988	8.82800007
          10	1	4	1	0.0	-6.98899984	0.23999999	5.37200022
          11	1	4	3	0.0	-5.15899992	-0.77200001	4.17299986
          12	1	4	4	0.0	-6.80900002	1.76499999	5.32200003
          13	1	5	1	0.0	-6.58300018	-0.84299999	1.75800002
          14	1	5	3	0.0	-8.40699959	0.398	0.778
          15	1	5	4	0.0	-6.88999987	-2.30800009	1.45700002
          16	1	6	1	0.0	-6.90600014	1.37300003	-1.324
          17	1	6	3	0.0	-7.44500017	-0.60399997	-2.6170001
          18	1	6	4	0.0	-5.78100014	2.31800008	-1.74600005
          19	2	7	1	0.0	-11.73200035	-1.07700002	2.49600005
          20	2	7	3	0.0	-9.84599972	-0.35600001	3.78699994
          21	2	7	4	0.0	-11.21100044	-2.43300009	2.023
          22	2	8	1	0.0	-11.30599976	-0.146	6.16599989
          23	2	8	3	0.0	-13.15499973	-1.17900002	7.31400013
          24	2	8	4	0.0	-11.58300018	1.35599995	6.27899981
          25	2	9	1	0.0	-11.68599987	-1.54799998	9.68299961
          26	2	9	3	0.0	-9.77299976	-0.55800003	10.72799969
          27	2	9	4	0.0	-11.46199989	-3.06900001	9.75599957
          28	2	10	1	0.0	-11.14500046	0.14	13.08699989
          29	2	10	3	0.0	-13.07499981	-0.53500003	14.32900047
          30	2	10	4	0.0	-11.27200031	1.66299999	13.02600002
          31	2	11	1	0.0	-11.63799953	-0.866	16.74399948
          32	2	11	3	0.0	-9.5539999	-0.498	17.88500023
          33	2	11	4	0.0	-11.68200016	-2.38700008	16.91799927
          34	2	12	1	0.0	-10.67099953	1.10300004	19.86599922
          35	2	12	3	0.0	-12.32800007	0.019	21.27799988
          36	2	12	4	0.0	-10.8579998	2.61199999	19.91600037
          37	3	13	1	0.0	-2.30699992	-1.07700002	2.49600005
          38	3	13	3	0.0	-0.421	-0.35600001	3.78699994
          39	3	13	4	0.0	-1.78600001	-2.43300009	2.023
          40	3	14	1	0.0	-1.88100004	-0.146	6.16599989
          41	3	14	3	0.0	-3.73000002	-1.17900002	7.31400013
          42	3	14	4	0.0	-2.15799999	1.35599995	6.27899981
          43	3	15	1	0.0	-2.26099992	-1.54799998	9.68299961
          44	3	15	3	0.0	-0.34799999	-0.55800003	10.72799969
          45	3	15	4	0.0	-2.03699994	-3.06900001	9.75599957
          46	3	16	1	0.0	-1.72000003	0.14	13.08699989
          47	3	16	3	0.0	-3.6500001	-0.53500003	14.32900047
          48	3	16	4	0.0	-1.847	1.66299999	13.02600002
          49	3	17	1	0.0	-2.21300006	-0.866	16.74399948
          50	3	17	3	0.0	-0.12899999	-0.498	17.88500023
          51	3	17	4	0.0	-2.25699997	-2.38700008	16.91799927
          52	3	18	1	0.0	-1.24600005	1.10300004	19.86599922
          53	3	18	3	0.0	-2.90300012	0.019	21.27799988
          54	3	18	4	0.0	-1.43299997	2.61199999	19.91600037
          55	4	19	1	0.0	-7.01200008	-9.91800022	20.39500046
          56	4	19	3	0.0	-5.12099981	-10.55599976	19.06200027
          57	4	19	4	0.0	-6.546	-8.53499985	20.85700035
          58	4	20	1	0.0	-6.53999996	-10.72200012	16.70000076
          59	4	20	3	0.0	-8.43400002	-9.75500011	15.55300045
          60	4	20	4	0.0	-6.59000015	-12.24800014	16.5529995
          61	4	21	1	0.0	-6.99499989	-9.35099983	13.18200016
          62	4	21	3	0.0	-5.04799986	-10.26900005	12.13399982
          63	4	21	4	0.0	-6.80499983	-7.82700014	13.09899998
          64	4	22	1	0.0	-6.36999989	-10.93500042	9.7670002
          65	4	22	3	0.0	-8.35299969	-10.34500027	8.53499985
          66	4	22	4	0.0	-6.23999977	-12.46100044	9.8039999
          67	4	23	1	0.0	-6.95499992	-9.98900032	6.125
          68	4	23	3	0.0	-4.88100004	-10.27799988	4.96400023
          69	4	23	4	0.0	-7.03399992	-8.46399975	5.98400021
          70	4	24	1	0.0	-5.96899986	-11.96700001	3.02399993
          71	4	24	3	0.0	-5.71600008	-11.22900009	0.74400002
          72	4	24	4	0.0	-6.15799999	-13.4829998	3.01399994
          73	5	25	1	0.0	2.41300011	-9.91800022	20.39500046
          74	5	25	3	0.0	4.3039999	-10.55599976	19.06200027
          75	5	25	4	0.0	2.87899995	-8.53499985	20.85700035
          76	5	26	1	0.0	2.88499999	-10.72200012	16.70000076
          77	5	26	3	0.0	0.991	-9.75500011	15.55300045
          78	5	26	4	0.0	2.83500004	-12.24800014	16.5529995
          79	5	27	1	0.0	2.43000007	-9.35099983	13.18200016
          80	5	27	3	0.0	4.37699986	-10.26900005	12.13399982
          81	5	27	4	0.0	2.61999989	-7.82700014	13.09899998
          82	5	28	1	0.0	3.05500007	-10.93500042	9.7670002
          83	5	28	3	0.0	1.07200003	-10.34500027	8.53499985
          84	5	28	4	0.0	3.18499994	-12.46100044	9.8039999
          85	5	29	1	0.0	2.47000003	-9.98900032	6.125
          86	5	29	3	0.0	4.54400015	-10.27799988	4.96400023
          87	5	29	4	0.0	2.39100003	-8.46399975	5.98400021
          88	5	30	1	0.0	3.45600009	-11.96700001	3.02399993
          89	5	30	3	0.0	3.70900011	-11.22900009	0.74400002
          90	5	30	4	0.0	3.26699996	-13.4829998	3.01399994
          91	6	31	1	0.0	-1.78699994	-9.64400005	6.93200016
          92	6	31	3	0.0	-3.64100003	-10.55799961	8.1420002
          93	6	31	4	0.0	-2.50200009	-8.35900021	6.52299976
          94	6	32	1	0.0	-2.14700007	-11.11200047	10.44900036
          95	6	32	3	0.0	-0.40099999	-10.01900005	11.68200016
          96	6	32	4	0.0	-1.80200005	-12.60400009	10.47799969
          97	6	33	1	0.0	-1.97599995	-9.64000034	13.98200035
          98	6	33	3	0.0	-3.69099998	-10.88300037	15.11600018
          99	6	33	4	0.0	-2.43700004	-8.17399979	14.03899956
         100	6	34	1	0.0	-2.19899988	-11.19299984	17.45999908
         101	6	34	3	0.0	-0.44400001	-10.06400013	18.65800095
         102	6	34	4	0.0	-1.82299995	-12.68400002	17.43400002
         103	6	35	1	0.0	-1.852	-10.05200005	21.07600021
         104	6	35	3	0.0	-3.69799995	-11.17199993	22.11400032
         105	6	35	4	0.0	-2.16100001	-8.57800007	21.34399986
         106	6	36	1	0.0	-2.16000009	-12.22700024	24.16900063
         107	6	36	3	0.0	-2.71300006	-10.19400024	25.36000061
         108	6	36	4	0.0	-1.03900003	-13.16699982	24.60400009

Bond Coeffs

           1	200.0	3.77
           2	200.0	2.41
           3	200.0	2.50
           4	200.0	1.54
           5	200.0	1.54
Bonds

           1	2	1	2
           2	4	1	3
           3	1	1	4
           4	3	2	4
           5	2	4	5
           6	4	4	6
           7	1	4	7
           8	3	5	7
           9	2	7	8
          10	4	7	9
          11	1	7	10
          12	3	8	10
          13	2	10	11
          14	4	10	12
          15	1	10	13
          16	3	11	13
          17	2	13	14
          18	4	13	15
          19	1	13	16
          20	3	14	16
          21	2	16	17
          22	4	16	18
          23	2	19	20
          24	4	19	21
          25	1	19	22
          26	3	20	22
          27	2	22	23
          28	4	22	24
          29	1	22	25
          30	3	23	25
          31	2	25	26
          32	4	25	27
          33	1	25	28
          34	3	26	28
          35	2	28	29
          36	4	28	30
          37	1	28	31
          38	3	29	31
          39	2	31	32
          40	4	31	33
          41	1	31	34
          42	3	32	34
          43	2	34	35
          44	4	34	36
          45	2	37	38
          46	4	37	39
          47	1	37	40
          48	3	38	40
          49	2	40	41
          50	4	40	42
          51	1	40	43
          52	3	41	43
          53	2	43	44
          54	4	43	45
          55	1	43	46
          56	3	44	46
          57	2	46	47
          58	4	46	48
          59	1	46	49
          60	3	47	49
          61	2	49	50
          62	4	49	51
          63	1	49	52
          64	3	50	52
          65	2	52	53
          66	4	52	54
          67	2	55	56
          68	4	55	57
          69	1	55	58
          70	3	56	58
          71	2	58	59
          72	4	58	60
          73	1	58	61
          74	3	59	61
          75	2	61	62
          76	4	61	63
          77	1	61	64
          78	3	62	64
          79	2	64	65
          80	4	64	66
          81	1	64	67
          82	3	65	67
          83	2	67	68
          84	4	67	69
          85	1	67	70
          86	3	68	70
          87	2	70	71
          88	4	70	72
          89	2	73	74
          90	4	73	75
          91	1	73	76
          92	3	74	76
          93	2	76	77
          94	4	76	78
          95	1	76	79
          96	3	77	79
          97	2	79	80
          98	4	79	81
          99	1	79	82
         100	3	80	82
         101	2	82	83
         102	4	82	84
         103	1	82	85
         104	3	83	85
         105	2	85	86
         106	4	85	87
         107	1	85	88
         108	3	86	88
         109	2	88	89
         110	4	88	90
         111	2	91	92
         112	4	91	93
         113	1	91	94
         114	3	92	94
         115	2	94	95
         116	4	94	96
         117	1	94	97
         118	3	95	97
         119	2	97	98
         120	4	97	99
         121	1	97	100
         122	3	98	100
         123	2	100	101
         124	4	100	102
         125	1	100	103
         126	3	101	103
         127	2	103	104
         128	4	103	105
         129	1	103	106
         130	3	104	106
         131	2	106	107
         132	4	106	108

