ITEM: TIMESTEP
0
ITEM: NUMBER OF ATOMS
108
ITEM: BOX BOUNDS ss ss ss
-1.3195007730000000e+01 4.5840081499999998e+00
-1.3523007800000000e+01 2.6520079900000000e+00
-2.6570080999999997e+00 2.5400008610000000e+01
ITEM: ATOMS id type xs ys zs
1 1 0.379718 0.777805 0.663257
2 3 0.272794 0.828439 0.619988
3 4 0.352607 0.690077 0.673771
4 1 0.352045 0.85119 0.535339
5 3 0.458575 0.800062 0.49068
6 4 0.354182 0.946027 0.532594
7 1 0.368187 0.758949 0.4107
8 3 0.267957 0.830293 0.370246
9 4 0.343552 0.667759 0.409345
10 1 0.349064 0.850881 0.286168
11 3 0.451994 0.788315 0.243433
12 4 0.359188 0.945162 0.284385
13 1 0.3719 0.783926 0.157358
14 3 0.269307 0.860649 0.12243
15 4 0.354632 0.693354 0.14663
16 1 0.353732 0.920927 0.0475107
17 3 0.323415 0.798701 0.00142595
18 4 0.417009 0.97935 0.0324699
19 1 0.0822884 0.769459 0.183662
20 3 0.188369 0.814034 0.229675
21 4 0.111593 0.685626 0.166803
22 1 0.106249 0.827017 0.314467
23 3 0.00225029 0.763153 0.355384
24 4 0.0906691 0.919876 0.318495
25 1 0.0848758 0.74034 0.439819
26 3 0.192475 0.801545 0.477065
27 4 0.0974749 0.646306 0.442421
28 1 0.115305 0.844698 0.561143
29 3 0.00674998 0.802967 0.60541
30 4 0.108162 0.938856 0.558969
31 1 0.0875756 0.782504 0.691485
32 3 0.204792 0.805255 0.732152
33 4 0.0851007 0.68847 0.697687
34 1 0.141966 0.904235 0.802758
35 3 0.0487658 0.837218 0.853085
36 4 0.131448 0.997527 0.804541
37 1 0.612408 0.769459 0.183662
38 3 0.718488 0.814034 0.229675
39 4 0.641712 0.685626 0.166803
40 1 0.636369 0.827017 0.314467
41 3 0.53237 0.763153 0.355384
42 4 0.620788 0.919876 0.318495
43 1 0.614995 0.74034 0.439819
44 3 0.722594 0.801545 0.477065
45 4 0.627594 0.646306 0.442421
46 1 0.645424 0.844698 0.561143
47 3 0.536869 0.802967 0.60541
48 4 0.638281 0.938856 0.558969
49 1 0.617695 0.782504 0.691485
50 3 0.734912 0.805255 0.732152
51 4 0.61522 0.68847 0.697687
52 1 0.672085 0.904235 0.802758
53 3 0.578885 0.837218 0.853085
54 4 0.661567 0.997527 0.804541
55 1 0.34777 0.222875 0.821613
56 3 0.454131 0.183432 0.774103
57 4 0.373981 0.308377 0.838079
58 1 0.374318 0.173169 0.689917
59 3 0.267788 0.232952 0.649036
60 4 0.371506 0.0788257 0.684677
61 1 0.348726 0.257929 0.564529
62 3 0.458237 0.201175 0.527177
63 4 0.359413 0.352149 0.561571
64 1 0.38388 0.16 0.442813
65 3 0.272344 0.196476 0.398902
66 4 0.391192 0.0656573 0.444132
67 1 0.350976 0.218486 0.313006
68 3 0.46763 0.200619 0.271626
69 4 0.346533 0.312767 0.30798
70 1 0.406435 0.0961982 0.202481
71 3 0.420665 0.141824 0.121218
72 4 0.395804 0.00247344 0.202124
73 1 0.877889 0.222875 0.821613
74 3 0.984251 0.183432 0.774103
75 4 0.9041 0.308377 0.838079
76 1 0.904437 0.173169 0.689917
77 3 0.797907 0.232952 0.649036
78 4 0.901625 0.0788257 0.684677
79 1 0.878845 0.257929 0.564529
80 3 0.988357 0.201175 0.527177
81 4 0.889532 0.352149 0.561571
82 1 0.913999 0.16 0.442813
83 3 0.802463 0.196476 0.398902
84 4 0.921311 0.0656573 0.444132
85 1 0.881095 0.218486 0.313006
86 3 0.99775 0.200619 0.271626
87 4 0.876652 0.312767 0.30798
88 1 0.936554 0.0961982 0.202481
89 3 0.950784 0.141824 0.121218
90 4 0.925923 0.00247344 0.202124
91 1 0.641656 0.239815 0.341769
92 3 0.537376 0.183308 0.384895
93 4 0.60144 0.319258 0.327191
94 1 0.621407 0.149057 0.467121
95 3 0.719613 0.216631 0.511067
96 4 0.640812 0.0568165 0.468154
97 1 0.631025 0.240062 0.593043
98 3 0.534563 0.163215 0.63346
99 4 0.605096 0.330696 0.595074
100 1 0.618482 0.14405 0.717004
101 3 0.717194 0.213849 0.759703
102 4 0.639631 0.0518706 0.716078
103 1 0.638 0.214591 0.845885
104 3 0.534169 0.145348 0.882881
105 4 0.62062 0.305719 0.855437
106 1 0.620676 0.080124 0.956125
107 3 0.589572 0.205812 0.998574
108 4 0.683728 0.0220097 0.971629
